# Time Cm Cd Cl Cl(f) Cl(r)
0.01 1e-6 2.4 -0.01 -0.005 -0.005
0.02 2e-6 2.2 -0.02 -0.01 -0.01
