# Time areaAverage(p)
0.1 100.0
0.2 100.1
0.3 100.05
0.4 100.02
0.5 100.01
