# Force coefficients
# liftDir     : (0.000000e+00 1.000000e+00 0.000000e+00)
# dragDir     : (1.000000e+00 0.000000e+00 0.000000e+00)
# pitchAxis   : (0.000000e+00 1.000000e+00 0.000000e+00)
# magUInf     : 1.500000e+00
# lRef        : 4.000000e-01
# Aref        : 4.000000e-01
# CofR        : (5.000000e+00 2.000000e+00 0.000000e+00)
# Time        	Cm            	Cd            	Cl            	Cl(f)         	Cl(r)         
0             	0.000000e+00	0.000000e+00	0.000000e+00	0.000000e+00	0.000000e+00
0.000666667   	1.756026e+03	1.404774e+03	-2.250726e+04	-9.497606e+03	-1.300966e+04
0.00133333    	-8.136815e+02	-6.508540e+02	1.113950e+04	4.756070e+03	6.383433e+03
0.002         	-1.003396e+02	-8.036511e+01	1.069871e+02	-4.684605e+01	1.538332e+02
0.00266667    	8.845851e+00	7.145849e+00	-1.224745e+01	2.722125e+00	-1.496958e+01
0.00333333    	1.423371e+01	1.139448e+01	-1.165280e+01	8.407316e+00	-2.006011e+01
0.004         	3.059049e+00	2.433418e+00	-2.584367e+00	1.766865e+00	-4.351232e+00
0.00466667    	2.847014e-01	2.226038e-01	-5.829170e-01	-6.757090e-03	-5.761599e-01
0.00533333    	-8.977421e-02	-7.452447e-02	2.798533e-01	5.015243e-02	2.297009e-01
0.006         	5.647922e-02	4.258404e-02	3.995004e-01	2.562294e-01	1.432710e-01
0.00666667    	2.835603e-01	2.248450e-01	3.815241e-01	4.743223e-01	-9.279824e-02
0.00733333    	4.428417e-01	3.532416e-01	3.849166e-01	6.353000e-01	-2.503835e-01
0.008         	5.179051e-01	4.136280e-01	3.996554e-01	7.177327e-01	-3.180774e-01
0.00866667    	5.294647e-01	4.231627e-01	4.155222e-01	7.372258e-01	-3.217036e-01
0.00933333    	5.209320e-01	4.162458e-01	4.353463e-01	7.386051e-01	-3.032588e-01
0.01          	4.992362e-01	3.988686e-01	4.568776e-01	7.276750e-01	-2.707974e-01
0.0106667     	4.812333e-01	3.844174e-01	4.666526e-01	7.145596e-01	-2.479070e-01
0.0113333     	4.683224e-01	3.742251e-01	4.785534e-01	7.075992e-01	-2.290457e-01
0.012         	4.563100e-01	3.646649e-01	4.823128e-01	6.974664e-01	-2.151535e-01
0.0126667     	4.445794e-01	3.553807e-01	4.797644e-01	6.844616e-01	-2.046972e-01
0.0133333     	4.364141e-01	3.488681e-01	4.786503e-01	6.757393e-01	-1.970890e-01
0.014         	4.266246e-01	3.410484e-01	4.795783e-01	6.664137e-01	-1.868354e-01
0.0146667     	4.184051e-01	3.344323e-01	4.814401e-01	6.591251e-01	-1.776850e-01
0.0153333     	4.162627e-01	3.327051e-01	4.878814e-01	6.602034e-01	-1.723220e-01
0.016         	4.139836e-01	3.309081e-01	4.904993e-01	6.592333e-01	-1.687340e-01
0.0166667     	4.144079e-01	3.312900e-01	4.917249e-01	6.602704e-01	-1.685455e-01
0.0173333     	4.134874e-01	3.306012e-01	4.928078e-01	6.598914e-01	-1.670835e-01
0.018         	4.135256e-01	3.306956e-01	4.954854e-01	6.612684e-01	-1.657829e-01
0.0186667     	4.150181e-01	3.318867e-01	4.943346e-01	6.621854e-01	-1.678508e-01
0.0193333     	4.176699e-01	3.340236e-01	4.964741e-01	6.659070e-01	-1.694329e-01
0.02          	4.160304e-01	3.327101e-01	4.990515e-01	6.655561e-01	-1.665047e-01
0.0206667     	4.133429e-01	3.306037e-01	5.047683e-01	6.657270e-01	-1.609587e-01
0.0213333     	4.123025e-01	3.298086e-01	5.060260e-01	6.653155e-01	-1.592895e-01
0.022         	4.120041e-01	3.295526e-01	5.052865e-01	6.646474e-01	-1.593609e-01
0.0226667     	4.121607e-01	3.296826e-01	5.043638e-01	6.643426e-01	-1.599788e-01
0.0233333     	4.126520e-01	3.301069e-01	5.057213e-01	6.655127e-01	-1.597914e-01
0.024         	4.139841e-01	3.312026e-01	5.069966e-01	6.674824e-01	-1.604858e-01
0.0246667     	4.164915e-01	3.332034e-01	5.076243e-01	6.703037e-01	-1.626794e-01
0.0253333     	4.176894e-01	3.341787e-01	5.077493e-01	6.715641e-01	-1.638148e-01
0.026         	4.186416e-01	3.349373e-01	5.075125e-01	6.723979e-01	-1.648854e-01
0.0266667     	4.193276e-01	3.354699e-01	5.066479e-01	6.726515e-01	-1.660036e-01
0.0273333     	4.205202e-01	3.364106e-01	5.046544e-01	6.728474e-01	-1.681930e-01
0.028         	4.216810e-01	3.373605e-01	5.024730e-01	6.729175e-01	-1.704445e-01
0.0286667     	4.230210e-01	3.384110e-01	5.022303e-01	6.741361e-01	-1.719058e-01
0.0293333     	4.251440e-01	3.401185e-01	5.022384e-01	6.762632e-01	-1.740248e-01
0.03          	4.275957e-01	3.420868e-01	5.021770e-01	6.786842e-01	-1.765072e-01
0.0306667     	4.308598e-01	3.446867e-01	5.013714e-01	6.815455e-01	-1.801741e-01
0.0313333     	4.341335e-01	3.472563e-01	5.007951e-01	6.845310e-01	-1.837359e-01
0.032         	4.360452e-01	3.487642e-01	5.004832e-01	6.862868e-01	-1.858036e-01
0.0326667     	4.377660e-01	3.501022e-01	5.007324e-01	6.881322e-01	-1.873997e-01
0.0333333     	4.384070e-01	3.506432e-01	4.994644e-01	6.881392e-01	-1.886748e-01
0.034         	4.391536e-01	3.512765e-01	4.993187e-01	6.888130e-01	-1.894943e-01
0.0346667     	4.407982e-01	3.525877e-01	5.008217e-01	6.912091e-01	-1.903874e-01
0.0353333     	4.414670e-01	3.530598e-01	5.012189e-01	6.920765e-01	-1.908576e-01
0.036         	4.414458e-01	3.530221e-01	5.010246e-01	6.919581e-01	-1.909335e-01
0.0366667     	4.415213e-01	3.531471e-01	5.005491e-01	6.917958e-01	-1.912468e-01
0.0373333     	4.422558e-01	3.537098e-01	5.004638e-01	6.924877e-01	-1.920239e-01
0.038         	4.424282e-01	3.538489e-01	5.004179e-01	6.926372e-01	-1.922193e-01
0.0386667     	4.433256e-01	3.545626e-01	5.004534e-01	6.935523e-01	-1.930989e-01
0.0393333     	4.441832e-01	3.552669e-01	5.003150e-01	6.943407e-01	-1.940256e-01
0.04          	4.446787e-01	3.556790e-01	5.000181e-01	6.946878e-01	-1.946697e-01
0.0406667     	4.449396e-01	3.558727e-01	5.004741e-01	6.951767e-01	-1.947026e-01
0.0413333     	4.449913e-01	3.559368e-01	5.012718e-01	6.956272e-01	-1.943555e-01
0.042         	4.456168e-01	3.564294e-01	5.013380e-01	6.962858e-01	-1.949478e-01
0.0426667     	4.457188e-01	3.565367e-01	5.009571e-01	6.961973e-01	-1.952402e-01
0.0433333     	4.467559e-01	3.573801e-01	5.014748e-01	6.974933e-01	-1.960185e-01
0.044         	4.479090e-01	3.582883e-01	5.023820e-01	6.990999e-01	-1.967180e-01
0.0446667     	4.486896e-01	3.589083e-01	5.030843e-01	7.002317e-01	-1.971474e-01
0.0453333     	4.495996e-01	3.596573e-01	5.045756e-01	7.018874e-01	-1.973119e-01
0.046         	4.515515e-01	3.612080e-01	5.057111e-01	7.044071e-01	-1.986959e-01
0.0466667     	4.542224e-01	3.633757e-01	5.071148e-01	7.077798e-01	-2.006650e-01
0.0473333     	4.578880e-01	3.662326e-01	5.094154e-01	7.125957e-01	-2.031803e-01
0.048         	4.555708e-01	3.644070e-01	5.080831e-01	7.096124e-01	-2.015293e-01
0.0486667     	4.536407e-01	3.628463e-01	5.069552e-01	7.071182e-01	-2.001631e-01
0.0493333     	4.537796e-01	3.629728e-01	5.073673e-01	7.074633e-01	-2.000960e-01
0.05          	4.549640e-01	3.639049e-01	5.084015e-01	7.091648e-01	-2.007633e-01
0.0506667     	4.550902e-01	3.640193e-01	5.076872e-01	7.089338e-01	-2.012466e-01
0.0513333     	4.546571e-01	3.636546e-01	5.072577e-01	7.082859e-01	-2.010282e-01
0.052         	4.557962e-01	3.645792e-01	5.081262e-01	7.098593e-01	-2.017331e-01
0.0526667     	4.570773e-01	3.656333e-01	5.086209e-01	7.113877e-01	-2.027668e-01
0.0533333     	4.575906e-01	3.660411e-01	5.087782e-01	7.119797e-01	-2.032015e-01
0.054         	4.581087e-01	3.664474e-01	5.091986e-01	7.127081e-01	-2.035094e-01
0.0546667     	4.586582e-01	3.668702e-01	5.101728e-01	7.137446e-01	-2.035718e-01
0.0553333     	4.593855e-01	3.675129e-01	5.111812e-01	7.149761e-01	-2.037949e-01
0.056         	4.605721e-01	3.684007e-01	5.116033e-01	7.163738e-01	-2.047705e-01
0.0566667     	4.615650e-01	3.691963e-01	5.115939e-01	7.173620e-01	-2.057681e-01
0.0573333     	4.622886e-01	3.697923e-01	5.113051e-01	7.179412e-01	-2.066361e-01
0.058         	4.619912e-01	3.695313e-01	5.116002e-01	7.177913e-01	-2.061911e-01
0.0586667     	4.619621e-01	3.695071e-01	5.116376e-01	7.177809e-01	-2.061433e-01
0.0593333     	4.626441e-01	3.700453e-01	5.120656e-01	7.186769e-01	-2.066113e-01
0.06          	4.635918e-01	3.707803e-01	5.113508e-01	7.192672e-01	-2.079164e-01
0.0606667     	4.639896e-01	3.711440e-01	5.119041e-01	7.199416e-01	-2.080375e-01
0.0613333     	4.647752e-01	3.717752e-01	5.124004e-01	7.209754e-01	-2.085750e-01
0.062         	4.650136e-01	3.719348e-01	5.125291e-01	7.212781e-01	-2.087490e-01
0.0626667     	4.652283e-01	3.720973e-01	5.127340e-01	7.215953e-01	-2.088613e-01
0.0633333     	4.661420e-01	3.728324e-01	5.124842e-01	7.223840e-01	-2.098999e-01
0.064         	4.659861e-01	3.727878e-01	5.124294e-01	7.222007e-01	-2.097714e-01
0.0646667     	4.659495e-01	3.726012e-01	5.133471e-01	7.226231e-01	-2.092760e-01
0.0653333     	4.660917e-01	3.728844e-01	5.130632e-01	7.226233e-01	-2.095601e-01
0.066         	4.674858e-01	3.737971e-01	5.131855e-01	7.240785e-01	-2.108931e-01
0.0666667     	4.676467e-01	3.740629e-01	5.131615e-01	7.242275e-01	-2.110660e-01
0.0673333     	4.683138e-01	3.745226e-01	5.127763e-01	7.247020e-01	-2.119256e-01
0.068         	4.687874e-01	3.749510e-01	5.125286e-01	7.250517e-01	-2.125231e-01
0.0686667     	4.693044e-01	3.753335e-01	5.123903e-01	7.254995e-01	-2.131093e-01
0.0693333     	4.695215e-01	3.755800e-01	5.122161e-01	7.256296e-01	-2.134135e-01
0.07          	4.698311e-01	3.758411e-01	5.126793e-01	7.261708e-01	-2.134915e-01
0.0706667     	4.698546e-01	3.758280e-01	5.129571e-01	7.263332e-01	-2.133761e-01
0.0713333     	4.710076e-01	3.766895e-01	5.135811e-01	7.277981e-01	-2.142170e-01
0.072         	4.718941e-01	3.774388e-01	5.129217e-01	7.283550e-01	-2.154333e-01
0.0726667     	4.724750e-01	3.779376e-01	5.124667e-01	7.287083e-01	-2.162416e-01
0.0733333     	4.730394e-01	3.784923e-01	5.123565e-01	7.292176e-01	-2.168611e-01
0.074         	4.737039e-01	3.788882e-01	5.128689e-01	7.301383e-01	-2.172695e-01
0.0746667     	4.734062e-01	3.784335e-01	5.132851e-01	7.300487e-01	-2.167636e-01
0.0753333     	4.765725e-01	3.812943e-01	5.136813e-01	7.334131e-01	-2.197319e-01
0.076         	4.797958e-01	3.839076e-01	5.141837e-01	7.368877e-01	-2.227039e-01
0.0766667     	4.795155e-01	3.833052e-01	5.143439e-01	7.366875e-01	-2.223435e-01
0.0773333     	4.778261e-01	3.821400e-01	5.141831e-01	7.349177e-01	-2.207346e-01
0.078         	4.808495e-01	3.846239e-01	5.139471e-01	7.378230e-01	-2.238760e-01
0.0786667     	4.841670e-01	3.872283e-01	5.140213e-01	7.411777e-01	-2.271564e-01
0.0793333     	4.833318e-01	3.864821e-01	5.140063e-01	7.403350e-01	-2.263287e-01
0.08          	4.858322e-01	3.885647e-01	5.139175e-01	7.427910e-01	-2.288735e-01
0.0806667     	4.886463e-01	3.908292e-01	5.140363e-01	7.456645e-01	-2.316282e-01
0.0813333     	4.881212e-01	3.904277e-01	5.139875e-01	7.451149e-01	-2.311274e-01
0.082         	4.879053e-01	3.902440e-01	5.138631e-01	7.448368e-01	-2.309737e-01
0.0826667     	4.891118e-01	3.911956e-01	5.140299e-01	7.461267e-01	-2.320968e-01
0.0833333     	4.913515e-01	3.928842e-01	5.137829e-01	7.482429e-01	-2.344600e-01
0.084         	4.950331e-01	3.958138e-01	5.134060e-01	7.517361e-01	-2.383301e-01
0.0846667     	4.950168e-01	3.960704e-01	5.135701e-01	7.518019e-01	-2.382318e-01
0.0853333     	4.940637e-01	3.952199e-01	5.135538e-01	7.508406e-01	-2.372868e-01
0.086         	4.953875e-01	3.961654e-01	5.135173e-01	7.521461e-01	-2.386289e-01
0.0866667     	4.974706e-01	3.978547e-01	5.134382e-01	7.541897e-01	-2.407515e-01
0.0873333     	4.988149e-01	3.990150e-01	5.136764e-01	7.556531e-01	-2.419767e-01
0.088         	4.999269e-01	3.998990e-01	5.139476e-01	7.569008e-01	-2.429531e-01
0.0886667     	5.014207e-01	4.009236e-01	5.128349e-01	7.578381e-01	-2.450032e-01
0.0893333     	5.030092e-01	4.023700e-01	5.119926e-01	7.590055e-01	-2.470129e-01
0.09          	5.047650e-01	4.037712e-01	5.117810e-01	7.606555e-01	-2.488745e-01
0.0906667     	5.055484e-01	4.043633e-01	5.119067e-01	7.615018e-01	-2.495951e-01
0.0913333     	5.050633e-01	4.039600e-01	5.117542e-01	7.609404e-01	-2.491862e-01
0.092         	5.054488e-01	4.042521e-01	5.117926e-01	7.613451e-01	-2.495524e-01
0.0926667     	5.062373e-01	4.049004e-01	5.113041e-01	7.618893e-01	-2.505852e-01
0.0933333     	5.070531e-01	4.056216e-01	5.105492e-01	7.623277e-01	-2.517785e-01
0.094         	5.079312e-01	4.062752e-01	5.103437e-01	7.631030e-01	-2.527594e-01
0.0946667     	5.091043e-01	4.071638e-01	5.109128e-01	7.645607e-01	-2.536479e-01
0.0953333     	5.121512e-01	4.096456e-01	5.111101e-01	7.677063e-01	-2.565961e-01
0.096         	5.132567e-01	4.104901e-01	5.101954e-01	7.683544e-01	-2.581590e-01
0.0966667     	5.134221e-01	4.107074e-01	5.099688e-01	7.684065e-01	-2.584377e-01
0.0973333     	5.148309e-01	4.117869e-01	5.094335e-01	7.695477e-01	-2.601142e-01
0.098         	5.165486e-01	4.131517e-01	5.095703e-01	7.713338e-01	-2.617634e-01
0.0986667     	5.185182e-01	4.147149e-01	5.093578e-01	7.731971e-01	-2.638393e-01
0.0993333     	5.202791e-01	4.161469e-01	5.089541e-01	7.747562e-01	-2.658021e-01
0.1           	5.216603e-01	4.172342e-01	5.086549e-01	7.759877e-01	-2.673328e-01
0.100667      	5.227487e-01	4.180779e-01	5.085933e-01	7.770454e-01	-2.684520e-01
0.101333      	5.250407e-01	4.199806e-01	5.086403e-01	7.793609e-01	-2.707206e-01
0.102         	5.261681e-01	4.207999e-01	5.083792e-01	7.803577e-01	-2.719785e-01
0.102667      	5.284548e-01	4.227148e-01	5.082412e-01	7.825754e-01	-2.743342e-01
0.103333      	5.296644e-01	4.236599e-01	5.087589e-01	7.840438e-01	-2.752850e-01
0.104         	5.316914e-01	4.252665e-01	5.077591e-01	7.855709e-01	-2.778118e-01
0.104667      	5.339945e-01	4.270938e-01	5.081052e-01	7.880471e-01	-2.799419e-01
0.105333      	5.366965e-01	4.292489e-01	5.079896e-01	7.906913e-01	-2.827017e-01
0.106         	5.382351e-01	4.305030e-01	5.074985e-01	7.919843e-01	-2.844858e-01
0.106667      	5.388839e-01	4.310294e-01	5.069482e-01	7.923580e-01	-2.854098e-01
0.107333      	5.402224e-01	4.321042e-01	5.067940e-01	7.936194e-01	-2.868253e-01
0.108         	5.419186e-01	4.334625e-01	5.065753e-01	7.952062e-01	-2.886309e-01
0.108667      	5.438957e-01	4.350340e-01	5.061741e-01	7.969828e-01	-2.908087e-01
0.109333      	5.453868e-01	4.362430e-01	5.059120e-01	7.983427e-01	-2.924308e-01
0.11          	5.465388e-01	4.371610e-01	5.052542e-01	7.991659e-01	-2.939117e-01
0.110667      	5.485237e-01	4.387132e-01	5.049049e-01	8.009761e-01	-2.960713e-01
0.111333      	5.501915e-01	4.400796e-01	5.050187e-01	8.027008e-01	-2.976821e-01
0.112         	5.513287e-01	4.409857e-01	5.046486e-01	8.036530e-01	-2.990045e-01
0.112667      	5.531207e-01	4.424337e-01	5.045221e-01	8.053818e-01	-3.008596e-01
0.113333      	5.557164e-01	4.445071e-01	5.042048e-01	8.078188e-01	-3.036141e-01
0.114         	5.577923e-01	4.461655e-01	5.037292e-01	8.096569e-01	-3.059278e-01
0.114667      	5.599356e-01	4.478546e-01	5.033266e-01	8.115990e-01	-3.082723e-01
0.115333      	5.618409e-01	4.494002e-01	5.034017e-01	8.135418e-01	-3.101401e-01
0.116         	5.637881e-01	4.509419e-01	5.033091e-01	8.154427e-01	-3.121336e-01
0.116667      	5.657725e-01	4.525389e-01	5.028424e-01	8.171937e-01	-3.143513e-01
0.117333      	5.675589e-01	4.539846e-01	5.019311e-01	8.185244e-01	-3.165933e-01
0.118         	5.694242e-01	4.554953e-01	5.017832e-01	8.203158e-01	-3.185325e-01
0.118667      	5.726401e-01	4.580273e-01	5.015247e-01	8.234024e-01	-3.218778e-01
0.119333      	5.759607e-01	4.606845e-01	5.013715e-01	8.266465e-01	-3.252750e-01
0.12          	5.750818e-01	4.599671e-01	5.011726e-01	8.256681e-01	-3.244955e-01
0.120667      	5.724446e-01	4.579065e-01	5.004252e-01	8.226572e-01	-3.222320e-01
0.121333      	5.724268e-01	4.578837e-01	4.999621e-01	8.224079e-01	-3.224458e-01
0.122         	5.742511e-01	4.593264e-01	4.997422e-01	8.241222e-01	-3.243800e-01
0.122667      	5.766106e-01	4.611963e-01	4.991671e-01	8.261941e-01	-3.270271e-01
0.123333      	5.788145e-01	4.630036e-01	4.993959e-01	8.285124e-01	-3.291165e-01
0.124         	5.805907e-01	4.644093e-01	4.996931e-01	8.304372e-01	-3.307442e-01
0.124667      	5.830970e-01	4.663848e-01	4.997799e-01	8.329869e-01	-3.332070e-01
0.125333      	5.853507e-01	4.682215e-01	4.987546e-01	8.347280e-01	-3.359734e-01
0.126         	5.868220e-01	4.694120e-01	4.976524e-01	8.356482e-01	-3.379958e-01
0.126667      	5.887695e-01	4.709528e-01	4.969642e-01	8.372516e-01	-3.402874e-01
0.127333      	5.940308e-01	4.751124e-01	4.961753e-01	8.421185e-01	-3.459432e-01
0.128         	5.973333e-01	4.778379e-01	4.961094e-01	8.453880e-01	-3.492786e-01
0.128667      	5.972136e-01	4.777214e-01	4.959707e-01	8.451990e-01	-3.492282e-01
0.129333      	5.987013e-01	4.789107e-01	4.958615e-01	8.466320e-01	-3.507705e-01
0.13          	6.010475e-01	4.807561e-01	4.955609e-01	8.488280e-01	-3.532671e-01
0.130667      	6.037511e-01	4.829240e-01	4.951895e-01	8.513458e-01	-3.561563e-01
0.131333      	6.060576e-01	4.847733e-01	4.950630e-01	8.535891e-01	-3.585262e-01
0.132         	6.083230e-01	4.865945e-01	4.945895e-01	8.556178e-01	-3.610282e-01
0.132667      	6.108486e-01	4.885909e-01	4.944727e-01	8.580849e-01	-3.636123e-01
0.133333      	6.128894e-01	4.902603e-01	4.936811e-01	8.597300e-01	-3.660489e-01
0.134         	6.139532e-01	4.911073e-01	4.938797e-01	8.608931e-01	-3.670133e-01
0.134667      	6.169798e-01	4.935008e-01	4.935611e-01	8.637604e-01	-3.701992e-01
0.135333      	6.194136e-01	4.954721e-01	4.935147e-01	8.661710e-01	-3.726563e-01
0.136         	6.196690e-01	4.956931e-01	4.931321e-01	8.662350e-01	-3.731029e-01
0.136667      	6.221973e-01	4.977364e-01	4.926997e-01	8.685471e-01	-3.758474e-01
0.137333      	6.247144e-01	4.996723e-01	4.921051e-01	8.707670e-01	-3.786619e-01
0.138         	6.280104e-01	5.023595e-01	4.921083e-01	8.740646e-01	-3.819562e-01
0.138667      	6.300114e-01	5.039386e-01	4.918865e-01	8.759547e-01	-3.840682e-01
0.139333      	6.318307e-01	5.053915e-01	4.916964e-01	8.776789e-01	-3.859825e-01
0.14          	6.342072e-01	5.073173e-01	4.914861e-01	8.799502e-01	-3.884642e-01
0.140667      	6.364210e-01	5.090828e-01	4.914503e-01	8.821461e-01	-3.906958e-01
0.141333      	6.388436e-01	5.110148e-01	4.909508e-01	8.843190e-01	-3.933683e-01
0.142         	6.411502e-01	5.128630e-01	4.898377e-01	8.860690e-01	-3.962313e-01
0.142667      	6.433896e-01	5.146495e-01	4.894221e-01	8.881006e-01	-3.986785e-01
0.143333      	6.459640e-01	5.167043e-01	4.892717e-01	8.905999e-01	-4.013282e-01
0.144         	6.476334e-01	5.180597e-01	4.891174e-01	8.921921e-01	-4.030746e-01
0.144667      	6.502328e-01	5.201245e-01	4.886553e-01	8.945605e-01	-4.059052e-01
0.145333      	6.527688e-01	5.221507e-01	4.887329e-01	8.971353e-01	-4.084024e-01
0.146         	6.548776e-01	5.238497e-01	4.886630e-01	8.992091e-01	-4.105461e-01
0.146667      	6.570187e-01	5.255428e-01	4.881865e-01	9.011119e-01	-4.129254e-01
0.147333      	6.601125e-01	5.279815e-01	4.880539e-01	9.041395e-01	-4.160856e-01
0.148         	6.624985e-01	5.299492e-01	4.876035e-01	9.063003e-01	-4.186968e-01
0.148667      	6.662968e-01	5.329853e-01	4.879208e-01	9.102572e-01	-4.223364e-01
0.149333      	6.699803e-01	5.359071e-01	4.867700e-01	9.133653e-01	-4.265953e-01
0.15          	6.721210e-01	5.376448e-01	4.872476e-01	9.157448e-01	-4.284972e-01
0.150667      	6.729316e-01	5.383402e-01	4.871481e-01	9.165056e-01	-4.293575e-01
0.151333      	6.746860e-01	5.396491e-01	4.860818e-01	9.177269e-01	-4.316451e-01
0.152         	6.772907e-01	5.417608e-01	4.862470e-01	9.204141e-01	-4.341672e-01
0.152667      	6.791642e-01	5.432630e-01	4.855099e-01	9.219191e-01	-4.364092e-01
0.153333      	6.813384e-01	5.450422e-01	4.854090e-01	9.240429e-01	-4.386339e-01
0.154         	6.836018e-01	5.468381e-01	4.848823e-01	9.260429e-01	-4.411606e-01
0.154667      	6.863048e-01	5.489841e-01	4.849047e-01	9.287572e-01	-4.438525e-01
0.155333      	6.888951e-01	5.510470e-01	4.846439e-01	9.312170e-01	-4.465731e-01
0.156         	6.921170e-01	5.536430e-01	4.845129e-01	9.343735e-01	-4.498605e-01
0.156667      	6.926309e-01	5.540809e-01	4.843340e-01	9.347979e-01	-4.504639e-01
0.157333      	6.941922e-01	5.552997e-01	4.841678e-01	9.362761e-01	-4.521083e-01
0.158         	6.965911e-01	5.572181e-01	4.841864e-01	9.386843e-01	-4.544979e-01
0.158667      	6.989753e-01	5.591248e-01	4.839200e-01	9.409353e-01	-4.570153e-01
0.159333      	7.012556e-01	5.609617e-01	4.834203e-01	9.429658e-01	-4.595455e-01
0.16          	7.039378e-01	5.630957e-01	4.833891e-01	9.456323e-01	-4.622432e-01
0.160667      	7.063003e-01	5.649916e-01	4.827439e-01	9.476723e-01	-4.649284e-01
0.161333      	7.086556e-01	5.668725e-01	4.829423e-01	9.501268e-01	-4.671845e-01
0.162         	7.107697e-01	5.685424e-01	4.823377e-01	9.519386e-01	-4.696008e-01
0.162667      	7.130166e-01	5.703577e-01	4.824009e-01	9.542170e-01	-4.718161e-01
0.163333      	7.153717e-01	5.722509e-01	4.819091e-01	9.563262e-01	-4.744172e-01
0.164         	7.177835e-01	5.741755e-01	4.818343e-01	9.587007e-01	-4.768663e-01
0.164667      	7.200987e-01	5.760438e-01	4.816543e-01	9.609259e-01	-4.792716e-01
0.165333      	7.224661e-01	5.779243e-01	4.811570e-01	9.630446e-01	-4.818876e-01
0.166         	7.253411e-01	5.802259e-01	4.809752e-01	9.658287e-01	-4.848535e-01
0.166667      	7.289189e-01	5.830692e-01	4.807509e-01	9.692943e-01	-4.885434e-01
0.167333      	7.316444e-01	5.852674e-01	4.806014e-01	9.719451e-01	-4.913437e-01
0.168         	7.339062e-01	5.870681e-01	4.803770e-01	9.740947e-01	-4.937178e-01
0.168667      	7.357865e-01	5.886035e-01	4.805694e-01	9.760712e-01	-4.955018e-01
0.169333      	7.401959e-01	5.921076e-01	4.799615e-01	9.801767e-01	-5.002151e-01
0.17          	7.422858e-01	5.937872e-01	4.793844e-01	9.819780e-01	-5.025936e-01
0.170667      	7.453315e-01	5.962167e-01	4.789999e-01	9.848315e-01	-5.058315e-01
0.171333      	7.454073e-01	5.963087e-01	4.789892e-01	9.849019e-01	-5.059126e-01
0.172         	7.474097e-01	5.979228e-01	4.784594e-01	9.866395e-01	-5.081800e-01
0.172667      	7.465029e-01	5.971649e-01	4.785845e-01	9.857952e-01	-5.072107e-01
0.173333      	7.517824e-01	6.013704e-01	4.781675e-01	9.908661e-01	-5.126987e-01
0.174         	7.524610e-01	6.019079e-01	4.783586e-01	9.916403e-01	-5.132817e-01
0.174667      	7.557835e-01	6.045800e-01	4.778076e-01	9.946873e-01	-5.168797e-01
0.175333      	7.589095e-01	6.070642e-01	4.774920e-01	9.976555e-01	-5.201635e-01
0.176         	7.620865e-01	6.096145e-01	4.778673e-01	1.001020e+00	-5.231528e-01
0.176667      	7.642162e-01	6.113535e-01	4.778881e-01	1.003160e+00	-5.252721e-01
0.177333      	7.651410e-01	6.120916e-01	4.774020e-01	1.003842e+00	-5.264400e-01
0.178         	7.676565e-01	6.140741e-01	4.770528e-01	1.006183e+00	-5.291301e-01
0.178667      	7.701076e-01	6.160395e-01	4.769194e-01	1.008567e+00	-5.316479e-01
0.179333      	7.728630e-01	6.182185e-01	4.765629e-01	1.011144e+00	-5.345816e-01
0.18          	7.761910e-01	6.208989e-01	4.763934e-01	1.014388e+00	-5.379943e-01
0.180667      	7.787571e-01	6.229590e-01	4.760892e-01	1.016802e+00	-5.407125e-01
0.181333      	7.812419e-01	6.249492e-01	4.758867e-01	1.019185e+00	-5.432986e-01
0.182         	7.833433e-01	6.266311e-01	4.758079e-01	1.021247e+00	-5.454393e-01
0.182667      	7.850295e-01	6.280605e-01	4.760797e-01	1.023069e+00	-5.469896e-01
0.183333      	7.905132e-01	6.323009e-01	4.760665e-01	1.028546e+00	-5.524800e-01
0.184         	7.939619e-01	6.350981e-01	4.752203e-01	1.031572e+00	-5.563517e-01
0.184667      	7.969810e-01	6.375425e-01	4.749159e-01	1.034439e+00	-5.595231e-01
0.185333      	8.002994e-01	6.401391e-01	4.749911e-01	1.037795e+00	-5.628039e-01
0.186         	8.016854e-01	6.413737e-01	4.753532e-01	1.039362e+00	-5.640088e-01
0.186667      	8.046141e-01	6.436367e-01	4.744667e-01	1.041847e+00	-5.673808e-01
0.187333      	8.058367e-01	6.446814e-01	4.740218e-01	1.042848e+00	-5.688258e-01
0.188         	8.083732e-01	6.466378e-01	4.731336e-01	1.044940e+00	-5.718064e-01
0.188667      	8.124809e-01	6.498778e-01	4.733172e-01	1.049139e+00	-5.758223e-01
0.189333      	8.155989e-01	6.524430e-01	4.732557e-01	1.052227e+00	-5.789710e-01
0.19          	8.184542e-01	6.547458e-01	4.733988e-01	1.055154e+00	-5.817548e-01
0.190667      	8.216929e-01	6.573164e-01	4.733380e-01	1.058362e+00	-5.850239e-01
0.191333      	8.248674e-01	6.598457e-01	4.731697e-01	1.061452e+00	-5.882826e-01
0.192         	8.290000e-01	6.631435e-01	4.727284e-01	1.065364e+00	-5.926358e-01
0.192667      	8.293203e-01	6.634216e-01	4.726734e-01	1.065657e+00	-5.929836e-01
0.193333      	8.318106e-01	6.654142e-01	4.726349e-01	1.068128e+00	-5.954931e-01
0.194         	8.346727e-01	6.676946e-01	4.725388e-01	1.070942e+00	-5.984033e-01
0.194667      	8.371788e-01	6.696813e-01	4.726384e-01	1.073498e+00	-6.008596e-01
0.195333      	8.389157e-01	6.711092e-01	4.729529e-01	1.075392e+00	-6.024392e-01
0.196         	8.398738e-01	6.718913e-01	4.715849e-01	1.075666e+00	-6.040813e-01
0.196667      	8.430059e-01	6.743828e-01	4.709425e-01	1.078477e+00	-6.075347e-01
0.197333      	8.461692e-01	6.769447e-01	4.699775e-01	1.081158e+00	-6.111805e-01
0.198         	8.467538e-01	6.773777e-01	4.698799e-01	1.081694e+00	-6.118139e-01
0.198667      	8.492874e-01	6.793942e-01	4.702203e-01	1.084398e+00	-6.141773e-01
0.199333      	8.521126e-01	6.816565e-01	4.700559e-01	1.087141e+00	-6.170846e-01
0.2           	8.550274e-01	6.839883e-01	4.695374e-01	1.089796e+00	-6.202587e-01
0.200667      	8.579996e-01	6.863666e-01	4.696941e-01	1.092847e+00	-6.231526e-01
0.201333      	8.607282e-01	6.885490e-01	4.696449e-01	1.095551e+00	-6.259058e-01
0.202         	8.635400e-01	6.908059e-01	4.696965e-01	1.098388e+00	-6.286917e-01
0.202667      	8.663438e-01	6.930473e-01	4.695823e-01	1.101135e+00	-6.315526e-01
0.203333      	8.690652e-01	6.952166e-01	4.692837e-01	1.103707e+00	-6.344234e-01
0.204         	8.717916e-01	6.974082e-01	4.689946e-01	1.106289e+00	-6.372943e-01
0.204667      	8.744274e-01	6.995136e-01	4.689508e-01	1.108903e+00	-6.399519e-01
0.205333      	8.772193e-01	7.017550e-01	4.687724e-01	1.111605e+00	-6.428331e-01
0.206         	8.799578e-01	7.039359e-01	4.685708e-01	1.114243e+00	-6.456724e-01
0.206667      	8.825082e-01	7.059732e-01	4.685981e-01	1.116807e+00	-6.482092e-01
0.207333      	8.846248e-01	7.076752e-01	4.685143e-01	1.118882e+00	-6.503676e-01
0.208         	8.871445e-01	7.096875e-01	4.682741e-01	1.121282e+00	-6.530074e-01
0.208667      	8.899746e-01	7.119528e-01	4.679561e-01	1.123953e+00	-6.559965e-01
0.209333      	8.924529e-01	7.139796e-01	4.675822e-01	1.126244e+00	-6.586618e-01
0.21          	8.946900e-01	7.156774e-01	4.680623e-01	1.128721e+00	-6.606588e-01
0.210667      	8.955562e-01	7.164594e-01	4.675809e-01	1.129347e+00	-6.617658e-01
0.211333      	8.988024e-01	7.189617e-01	4.677240e-01	1.132664e+00	-6.649404e-01
0.212         	8.999274e-01	7.200605e-01	4.667654e-01	1.133310e+00	-6.665447e-01
0.212667      	9.037025e-01	7.228391e-01	4.671003e-01	1.137253e+00	-6.701523e-01
0.213333      	9.063629e-01	7.251280e-01	4.669197e-01	1.139823e+00	-6.729030e-01
0.214         	9.078840e-01	7.263080e-01	4.665995e-01	1.141184e+00	-6.745842e-01
0.214667      	9.079756e-01	7.263753e-01	4.667909e-01	1.141371e+00	-6.745802e-01
0.215333      	9.104750e-01	7.283577e-01	4.664382e-01	1.143694e+00	-6.772559e-01
0.216         	9.143107e-01	7.315080e-01	4.662584e-01	1.147440e+00	-6.811815e-01
0.216667      	9.200543e-01	7.358753e-01	4.661183e-01	1.153113e+00	-6.869951e-01
0.217333      	9.220789e-01	7.377352e-01	4.663275e-01	1.155243e+00	-6.889151e-01
0.218         	9.256965e-01	7.404485e-01	4.660382e-01	1.158716e+00	-6.926774e-01
0.218667      	9.281475e-01	7.425272e-01	4.658010e-01	1.161048e+00	-6.952470e-01
0.219333      	9.306659e-01	7.445029e-01	4.655856e-01	1.163459e+00	-6.978731e-01
0.22          	9.326433e-01	7.460931e-01	4.657152e-01	1.165501e+00	-6.997857e-01
0.220667      	9.344973e-01	7.475731e-01	4.655043e-01	1.167249e+00	-7.017452e-01
0.221333      	9.357903e-01	7.486806e-01	4.654043e-01	1.168492e+00	-7.030882e-01
0.222         	9.408680e-01	7.525679e-01	4.654265e-01	1.173581e+00	-7.081547e-01
0.222667      	9.447288e-01	7.557420e-01	4.649644e-01	1.177211e+00	-7.122466e-01
0.223333      	9.477798e-01	7.582230e-01	4.647088e-01	1.180134e+00	-7.154254e-01
0.224         	9.514895e-01	7.611458e-01	4.646344e-01	1.183807e+00	-7.191723e-01
0.224667      	9.539088e-01	7.631106e-01	4.645955e-01	1.186207e+00	-7.216111e-01
0.225333      	9.558112e-01	7.646369e-01	4.645524e-01	1.188087e+00	-7.235349e-01
0.226         	9.579252e-01	7.663499e-01	4.641952e-01	1.190023e+00	-7.258276e-01
0.226667      	9.607677e-01	7.685931e-01	4.639117e-01	1.192724e+00	-7.288118e-01
0.227333      	9.637419e-01	7.709696e-01	4.637605e-01	1.195622e+00	-7.318617e-01
0.228         	9.663742e-01	7.731010e-01	4.637146e-01	1.198232e+00	-7.345170e-01
0.228667      	9.687603e-01	7.749859e-01	4.635102e-01	1.200515e+00	-7.370052e-01
0.229333      	9.712570e-01	7.769834e-01	4.636330e-01	1.203073e+00	-7.394405e-01
0.23          	9.731182e-01	7.785126e-01	4.636139e-01	1.204925e+00	-7.413113e-01
0.230667      	9.759653e-01	7.807449e-01	4.634338e-01	1.207682e+00	-7.442484e-01
0.231333      	9.791606e-01	7.833031e-01	4.630144e-01	1.210668e+00	-7.476534e-01
0.232         	9.823085e-01	7.858198e-01	4.628944e-01	1.213756e+00	-7.508614e-01
0.232667      	9.851718e-01	7.881249e-01	4.628616e-01	1.216603e+00	-7.537410e-01
0.233333      	9.881169e-01	7.904122e-01	4.625131e-01	1.219373e+00	-7.568603e-01
0.234         	9.887819e-01	7.911071e-01	4.637309e-01	1.220647e+00	-7.569165e-01
0.234667      	9.911652e-01	7.928475e-01	4.627205e-01	1.222525e+00	-7.598049e-01
0.235333      	9.940862e-01	7.953123e-01	4.616406e-01	1.224907e+00	-7.632659e-01
0.236         	9.972243e-01	7.977460e-01	4.621403e-01	1.228294e+00	-7.661541e-01
0.236667      	9.998721e-01	7.998689e-01	4.621652e-01	1.230955e+00	-7.687895e-01
0.237333      	1.002938e+00	8.023132e-01	4.621510e-01	1.234013e+00	-7.718624e-01
0.238         	1.004632e+00	8.037957e-01	4.620037e-01	1.235633e+00	-7.736298e-01
0.238667      	1.006734e+00	8.053908e-01	4.609857e-01	1.237227e+00	-7.762415e-01
0.239333      	1.010754e+00	8.084974e-01	4.611845e-01	1.241346e+00	-7.801617e-01
0.24          	1.013265e+00	8.105574e-01	4.620782e-01	1.244304e+00	-7.822261e-01
0.240667      	1.015763e+00	8.126321e-01	4.619548e-01	1.246740e+00	-7.847855e-01
0.241333      	1.019058e+00	8.152357e-01	4.619077e-01	1.250012e+00	-7.881041e-01
0.242         	1.021351e+00	8.170510e-01	4.607624e-01	1.251732e+00	-7.909693e-01
0.242667      	1.022575e+00	8.181260e-01	4.602179e-01	1.252684e+00	-7.924656e-01