# Time areaAverage(p)
0.1 50.0
0.2 50.1
0.3 50.05
0.4 50.02
0.5 50.01
