# Time Cd Cl Cm
0.1 1.5 0.3 0.1
0.2 1.48 0.32 0.12
