# Time  areaAverage(p)
0.0  50.0
1.0  52.0
2.0  51.5
