# Force coefficients
# liftDir     : (0.000000e+00 1.000000e+00 0.000000e+00)
# dragDir     : (1.000000e+00 0.000000e+00 0.000000e+00)
# pitchAxis   : (0.000000e+00 1.000000e+00 0.000000e+00)
# magUInf     : 1.000000e+00
# lRef        : 1.000000e+00
# Aref        : 1.000000e+00
# CofR        : (3.000000e+00 3.000000e+00 0.000000e+00)
# Time        	Cm            	Cd            	Cl            	Cl(f)         	Cl(r)         
0             	9.651548e-08	1.547802e-07	1.692811e-08	1.049795e-07	-8.805143e-08
0.024         	1.030248e+02	2.069570e+02	1.095558e+00	1.035726e+02	-1.024770e+02
0.0243565     	2.371260e+02	4.745414e+02	1.272653e-01	2.371896e+02	-2.370624e+02
0.0247842     	-7.137726e+01	-1.446019e+02	2.598621e+00	-7.007795e+01	7.267657e+01
0.0252241     	-1.535322e+01	-3.112686e+01	1.495909e+00	-1.460527e+01	1.610118e+01
0.0256723     	7.634467e+00	1.401194e+01	-4.478260e+00	5.395337e+00	-9.873597e+00
0.0261486     	3.602046e+00	6.304792e+00	2.639809e+00	4.921950e+00	-2.282141e+00
0.0266145     	7.167897e-01	8.514308e-01	4.921565e-01	9.628679e-01	-4.707114e-01
0.0271008     	-8.165878e-01	-1.962282e+00	6.471653e-03	-8.133520e-01	8.198237e-01
0.0276247     	-5.797432e-01	-1.322647e+00	2.184002e-01	-4.705431e-01	6.889433e-01
0.0282029     	2.243043e-01	3.611288e-01	1.015068e-03	2.248118e-01	-2.237968e-01
0.0288506     	3.258035e-01	6.063743e-01	-3.089397e-01	1.713336e-01	-4.802733e-01
0.0295852     	1.924531e-01	3.687727e-01	-2.343596e-01	7.527336e-02	-3.096329e-01
0.0304176     	5.896093e-02	9.940348e-02	-4.247535e-02	3.772325e-02	-8.019860e-02
0.0313251     	1.621340e-02	2.400381e-02	-2.592311e-02	3.251843e-03	-2.917495e-02
0.0323202     	5.363638e-02	9.989524e-02	1.231307e-01	1.152017e-01	7.928950e-03
0.0333347     	-1.459571e-02	-3.262914e-02	2.684663e-01	1.196375e-01	1.488289e-01
0.034375      	-9.094420e-02	-1.814336e-01	2.005710e-01	9.341293e-03	1.912297e-01
0.0354483     	-9.097223e-02	-1.809420e-01	1.824113e-01	2.334080e-04	1.821779e-01
0.0365619     	-6.039069e-02	-1.201316e-01	2.124042e-01	4.581142e-02	1.665928e-01
0.0376324     	-3.615502e-02	-7.149962e-02	1.904562e-01	5.907306e-02	1.313831e-01
0.0386792     	-1.466893e-02	-2.871754e-02	1.175952e-01	4.412869e-02	7.346654e-02
0.0397224     	5.639078e-04	2.707361e-03	1.314181e-01	6.627296e-02	6.514515e-02
0.0407419     	1.167350e-02	2.198483e-02	1.121203e-01	6.773363e-02	4.438663e-02
0.04175       	3.717889e-02	7.707269e-02	9.395216e-02	8.415497e-02	9.797194e-03
0.0427608     	4.799994e-02	9.895194e-02	9.738574e-02	9.669281e-02	6.929297e-04
0.0437829     	5.567736e-02	1.131995e-01	1.304960e-01	1.209254e-01	9.570632e-03
0.04482       	6.190015e-02	1.239106e-01	1.186210e-01	1.212106e-01	-2.589667e-03
0.0458725     	6.982768e-02	1.401197e-01	1.091322e-01	1.243938e-01	-1.526157e-02
0.0469384     	6.752155e-02	1.350470e-01	8.677424e-02	1.109087e-01	-2.413443e-02
0.0480143     	6.366459e-02	1.272015e-01	7.638483e-02	1.018570e-01	-2.547217e-02
0.0490964     	7.621875e-02	1.525292e-01	7.803350e-02	1.152355e-01	-3.720199e-02
0.0501817     	8.151888e-02	1.622299e-01	8.713497e-02	1.250864e-01	-3.795140e-02
0.0512685     	8.752366e-02	1.729584e-01	8.962248e-02	1.323349e-01	-4.271242e-02
0.0523563     	8.674639e-02	1.696960e-01	8.480007e-02	1.291464e-01	-4.434635e-02
0.0534455     	8.927780e-02	1.782023e-01	1.063687e-01	1.424621e-01	-3.609347e-02
0.0545375     	8.906272e-02	1.764284e-01	9.943582e-02	1.387806e-01	-3.934481e-02
0.0556353     	8.821173e-02	1.754305e-01	1.089995e-01	1.427115e-01	-3.371198e-02
0.0567427     	9.408725e-02	1.868706e-01	1.278922e-01	1.580333e-01	-3.014117e-02
0.0578639     	9.664443e-02	1.919486e-01	1.390888e-01	1.661888e-01	-2.710003e-02
0.0590034     	8.862213e-02	1.743550e-01	1.402810e-01	1.587626e-01	-1.848164e-02
0.0601648     	8.445962e-02	1.672731e-01	1.362057e-01	1.525625e-01	-1.635676e-02
0.0613523     	9.327344e-02	1.843269e-01	1.280045e-01	1.572757e-01	-2.927120e-02
0.0625699     	1.002226e-01	1.986445e-01	1.217147e-01	1.610800e-01	-3.936529e-02
0.0638209     	9.651561e-02	1.938602e-01	1.213066e-01	1.571689e-01	-3.586231e-02
0.065109      	9.657973e-02	1.913572e-01	1.268641e-01	1.600118e-01	-3.314767e-02
0.0664385     	9.574964e-02	1.893197e-01	1.346623e-01	1.630808e-01	-2.841847e-02
0.0678128     	9.507758e-02	1.882825e-01	1.264568e-01	1.583060e-01	-3.184917e-02
0.0692354     	9.746546e-02	1.928174e-01	1.112191e-01	1.530750e-01	-4.185592e-02
0.0707093     	9.815614e-02	1.947811e-01	9.249608e-02	1.444042e-01	-5.190810e-02
0.0721921     	9.873252e-02	1.964702e-01	9.793243e-02	1.476987e-01	-4.976631e-02
0.0736348     	9.254354e-02	1.832118e-01	1.012591e-01	1.431731e-01	-4.191397e-02
0.0750387     	9.802346e-02	1.947082e-01	8.864692e-02	1.423469e-01	-5.370000e-02
0.0764053     	9.670714e-02	1.924402e-01	9.258378e-02	1.429990e-01	-5.041525e-02
0.0777373     	9.805343e-02	1.947985e-01	8.669955e-02	1.414032e-01	-5.470366e-02
0.079038      	9.523918e-02	1.905789e-01	9.107621e-02	1.407773e-01	-4.970107e-02
0.0803108     	9.655422e-02	1.923395e-01	9.690238e-02	1.450054e-01	-4.810303e-02
0.0815597     	9.548481e-02	1.913351e-01	8.816176e-02	1.395657e-01	-5.140393e-02
0.0827883     	9.712517e-02	1.938763e-01	7.799230e-02	1.361213e-01	-5.812902e-02
0.084001      	9.385001e-02	1.879607e-01	6.906883e-02	1.283844e-01	-5.931560e-02
0.085202      	9.074422e-02	1.819407e-01	6.522834e-02	1.233584e-01	-5.813005e-02
0.0863958     	8.693803e-02	1.731536e-01	6.148758e-02	1.176818e-01	-5.619424e-02
0.0875862     	9.266800e-02	1.871561e-01	6.676187e-02	1.260489e-01	-5.928707e-02
0.0887768     	9.601582e-02	1.921758e-01	6.779969e-02	1.299157e-01	-6.211598e-02
0.0899669     	9.276825e-02	1.853148e-01	6.416053e-02	1.248485e-01	-6.068798e-02
0.0911593     	9.342847e-02	1.864245e-01	5.990064e-02	1.233788e-01	-6.347815e-02
0.0923564     	9.081519e-02	1.831937e-01	6.800965e-02	1.248200e-01	-5.681037e-02
0.0935596     	9.320538e-02	1.868934e-01	6.677582e-02	1.265933e-01	-5.981747e-02
0.0947701     	9.696580e-02	1.932973e-01	6.540689e-02	1.296692e-01	-6.426236e-02
0.0959881     	9.657946e-02	1.934145e-01	7.601229e-02	1.345856e-01	-5.857331e-02
0.0972133     	9.607496e-02	1.929828e-01	7.866133e-02	1.354056e-01	-5.674429e-02
0.0984448     	1.010306e-01	2.027784e-01	7.926429e-02	1.406627e-01	-6.139845e-02
0.0996817     	1.044254e-01	2.095037e-01	7.689961e-02	1.428752e-01	-6.597557e-02
0.100923      	1.082036e-01	2.148131e-01	7.142177e-02	1.439145e-01	-7.249270e-02
0.102166      	1.081565e-01	2.156304e-01	6.097248e-02	1.386427e-01	-7.767023e-02
0.103412      	1.052347e-01	2.110786e-01	6.475243e-02	1.376109e-01	-7.285852e-02
0.104658      	1.093694e-01	2.167688e-01	7.010816e-02	1.444235e-01	-7.431533e-02
0.105906      	1.092448e-01	2.174056e-01	6.445446e-02	1.414720e-01	-7.701755e-02
0.107154      	1.101260e-01	2.186977e-01	6.266782e-02	1.414599e-01	-7.879213e-02
0.108404      	1.130856e-01	2.249344e-01	7.444936e-02	1.503103e-01	-7.586094e-02
0.109656      	1.171966e-01	2.331858e-01	7.957485e-02	1.569840e-01	-7.740915e-02
0.110913      	1.167406e-01	2.314437e-01	8.578586e-02	1.596336e-01	-7.384769e-02
0.112174      	1.149547e-01	2.288410e-01	9.028021e-02	1.600948e-01	-6.981455e-02
0.113444      	1.167052e-01	2.309274e-01	8.406454e-02	1.587375e-01	-7.467291e-02
0.114721      	1.159893e-01	2.299514e-01	7.598053e-02	1.539795e-01	-7.799899e-02
0.116009      	1.185006e-01	2.351817e-01	7.906472e-02	1.580330e-01	-7.896827e-02
0.117301      	1.199721e-01	2.387580e-01	8.042732e-02	1.601858e-01	-7.975846e-02
0.118591      	1.207526e-01	2.401523e-01	8.168357e-02	1.615944e-01	-7.991086e-02
0.119881      	1.230746e-01	2.445086e-01	8.481503e-02	1.654821e-01	-8.066706e-02
0.121172      	1.238485e-01	2.465569e-01	7.561518e-02	1.616561e-01	-8.604089e-02
0.122461      	1.247651e-01	2.483150e-01	7.340314e-02	1.614666e-01	-8.806348e-02
0.123751      	1.258168e-01	2.500931e-01	6.824143e-02	1.599375e-01	-9.169609e-02
0.125041      	1.273346e-01	2.533163e-01	7.181694e-02	1.632431e-01	-9.142615e-02
0.126332      	1.311344e-01	2.599001e-01	7.294633e-02	1.676075e-01	-9.466120e-02
0.127625      	1.319536e-01	2.617796e-01	7.205899e-02	1.679831e-01	-9.592412e-02
0.12892       	1.347746e-01	2.674332e-01	7.122313e-02	1.703862e-01	-9.916303e-02
0.130219      	1.349243e-01	2.689417e-01	7.080289e-02	1.703258e-01	-9.952288e-02
0.131521      	1.355869e-01	2.700916e-01	6.784502e-02	1.695094e-01	-1.016644e-01
0.132829      	1.392637e-01	2.767362e-01	7.033187e-02	1.744296e-01	-1.040978e-01
0.134141      	1.412707e-01	2.823873e-01	7.007741e-02	1.763095e-01	-1.062320e-01
0.135452      	1.409892e-01	2.832358e-01	6.738489e-02	1.746817e-01	-1.072968e-01
0.136762      	1.404459e-01	2.821009e-01	6.745161e-02	1.741717e-01	-1.067201e-01
0.138073      	1.377822e-01	2.755584e-01	6.870014e-02	1.721323e-01	-1.034322e-01
0.139384      	1.397215e-01	2.785940e-01	6.466651e-02	1.720548e-01	-1.073882e-01
0.140697      	1.406985e-01	2.803816e-01	6.249929e-02	1.719481e-01	-1.094488e-01
0.142011      	1.393620e-01	2.779992e-01	5.840346e-02	1.685637e-01	-1.101602e-01
0.143327      	1.391571e-01	2.779356e-01	6.203389e-02	1.701741e-01	-1.081402e-01
0.144646      	1.383805e-01	2.762178e-01	6.085078e-02	1.688059e-01	-1.079551e-01
0.145968      	1.383725e-01	2.758695e-01	6.007375e-02	1.684093e-01	-1.083356e-01
0.147295      	1.396627e-01	2.784530e-01	6.080179e-02	1.700636e-01	-1.092618e-01
0.148625      	1.406407e-01	2.808609e-01	6.495522e-02	1.731183e-01	-1.081630e-01
0.149962      	1.443851e-01	2.881224e-01	6.795238e-02	1.783613e-01	-1.104089e-01
0.151305      	1.425439e-01	2.845624e-01	6.343539e-02	1.742616e-01	-1.108262e-01
0.152649      	1.406649e-01	2.812836e-01	5.965806e-02	1.704939e-01	-1.108358e-01
0.153995      	1.407836e-01	2.815114e-01	5.951718e-02	1.705422e-01	-1.110250e-01
0.155344      	1.417837e-01	2.832307e-01	6.072004e-02	1.721437e-01	-1.114237e-01
0.156694      	1.436803e-01	2.865676e-01	6.069251e-02	1.740265e-01	-1.133340e-01
0.158048      	1.446573e-01	2.888788e-01	6.065883e-02	1.749867e-01	-1.143278e-01
0.1594        	1.451481e-01	2.901497e-01	6.248965e-02	1.763929e-01	-1.139033e-01
0.160752      	1.456430e-01	2.909932e-01	6.464375e-02	1.779649e-01	-1.133212e-01
0.162103      	1.460300e-01	2.913099e-01	6.417607e-02	1.781180e-01	-1.139420e-01
0.163455      	1.465441e-01	2.923618e-01	6.468331e-02	1.788857e-01	-1.142024e-01
0.164807      	1.477568e-01	2.952596e-01	6.581517e-02	1.806644e-01	-1.148492e-01
0.166161      	1.487781e-01	2.975213e-01	6.657503e-02	1.820656e-01	-1.154906e-01
0.167518      	1.501896e-01	2.997044e-01	6.867025e-02	1.845248e-01	-1.158545e-01
0.168877      	1.512059e-01	3.020498e-01	6.996721e-02	1.861895e-01	-1.162223e-01
0.17024       	1.518056e-01	3.030291e-01	6.804703e-02	1.858291e-01	-1.177821e-01
0.171606      	1.539189e-01	3.074639e-01	6.789518e-02	1.878665e-01	-1.199713e-01
0.172976      	1.544365e-01	3.085502e-01	6.870061e-02	1.887868e-01	-1.200862e-01
0.17435       	1.544725e-01	3.084155e-01	6.857464e-02	1.887598e-01	-1.201851e-01
0.17573       	1.547111e-01	3.088911e-01	6.714192e-02	1.882820e-01	-1.211401e-01
0.177115      	1.551125e-01	3.097273e-01	6.630431e-02	1.882646e-01	-1.219603e-01
0.178507      	1.565963e-01	3.127226e-01	6.596330e-02	1.895780e-01	-1.236147e-01
0.179905      	1.576314e-01	3.146092e-01	6.841937e-02	1.918411e-01	-1.234217e-01
0.18131       	1.580335e-01	3.158634e-01	7.152154e-02	1.937942e-01	-1.222727e-01
0.182722      	1.589478e-01	3.175129e-01	6.976033e-02	1.938280e-01	-1.240676e-01
0.184142      	1.600572e-01	3.194879e-01	6.747290e-02	1.937936e-01	-1.263207e-01
0.185571      	1.609260e-01	3.210533e-01	6.639030e-02	1.941212e-01	-1.277309e-01
0.187008      	1.612222e-01	3.217654e-01	6.475204e-02	1.935982e-01	-1.288462e-01
0.188455      	1.616535e-01	3.228494e-01	6.420475e-02	1.937559e-01	-1.295511e-01
0.189911      	1.624079e-01	3.243495e-01	6.253848e-02	1.936772e-01	-1.311387e-01
0.191374      	1.632873e-01	3.260466e-01	6.139414e-02	1.939844e-01	-1.325902e-01
0.192843      	1.637525e-01	3.269006e-01	6.025739e-02	1.938812e-01	-1.336238e-01
0.194317      	1.644722e-01	3.285603e-01	5.740089e-02	1.931727e-01	-1.357718e-01
0.195798      	1.648839e-01	3.294027e-01	5.690405e-02	1.933359e-01	-1.364319e-01
0.197273      	1.653015e-01	3.301276e-01	5.729939e-02	1.939512e-01	-1.366519e-01
0.19874       	1.660871e-01	3.314920e-01	5.399605e-02	1.930851e-01	-1.390890e-01
0.2002        	1.671922e-01	3.336525e-01	5.342789e-02	1.939062e-01	-1.404783e-01
0.201654      	1.681687e-01	3.357166e-01	5.272485e-02	1.945311e-01	-1.418062e-01
0.203101      	1.686038e-01	3.365204e-01	4.826867e-02	1.927381e-01	-1.444694e-01
0.204544      	1.688975e-01	3.371397e-01	4.670284e-02	1.922489e-01	-1.455460e-01
0.205981      	1.695239e-01	3.382178e-01	4.838562e-02	1.937167e-01	-1.453311e-01
0.207414      	1.716083e-01	3.425822e-01	4.896898e-02	1.960927e-01	-1.471238e-01
0.208842      	1.726928e-01	3.447181e-01	4.667392e-02	1.960298e-01	-1.493558e-01
0.210268      	1.729464e-01	3.452811e-01	4.726207e-02	1.965774e-01	-1.493153e-01
0.211689      	1.738636e-01	3.471212e-01	5.109841e-02	1.994128e-01	-1.483143e-01
0.213108      	1.746880e-01	3.488983e-01	4.928986e-02	1.993329e-01	-1.500431e-01
0.214524      	1.743985e-01	3.485249e-01	4.551854e-02	1.971578e-01	-1.516393e-01
0.215938      	1.752744e-01	3.498705e-01	4.314970e-02	1.968492e-01	-1.536995e-01
0.217349      	1.754296e-01	3.503774e-01	4.074483e-02	1.958020e-01	-1.550572e-01
0.218754      	1.759859e-01	3.513045e-01	3.832867e-02	1.951503e-01	-1.568216e-01
0.220151      	1.764162e-01	3.526943e-01	3.665975e-02	1.947460e-01	-1.580863e-01
0.221541      	1.767870e-01	3.532549e-01	3.641417e-02	1.949941e-01	-1.585799e-01
0.222924      	1.772052e-01	3.539600e-01	3.639317e-02	1.954018e-01	-1.590086e-01
0.224301      	1.781076e-01	3.556551e-01	3.593275e-02	1.960740e-01	-1.601413e-01
0.225673      	1.778129e-01	3.555084e-01	3.547662e-02	1.955512e-01	-1.600746e-01
0.227039      	1.782892e-01	3.562173e-01	3.382998e-02	1.952042e-01	-1.613742e-01
0.228401      	1.778594e-01	3.551659e-01	3.244996e-02	1.940844e-01	-1.616344e-01
0.229759      	1.786184e-01	3.564576e-01	3.325902e-02	1.952479e-01	-1.619889e-01
0.231112      	1.802836e-01	3.595981e-01	3.162222e-02	1.960947e-01	-1.644725e-01
0.232463      	1.803193e-01	3.602117e-01	3.104602e-02	1.958423e-01	-1.647963e-01
0.23381       	1.809604e-01	3.612853e-01	2.945784e-02	1.956894e-01	-1.662315e-01
0.235154      	1.812885e-01	3.619552e-01	2.784511e-02	1.952111e-01	-1.673660e-01
0.236495      	1.815117e-01	3.622485e-01	2.754681e-02	1.952851e-01	-1.677383e-01
0.237834      	1.819362e-01	3.632068e-01	3.212115e-02	1.979968e-01	-1.658756e-01
0.239171      	1.826597e-01	3.646040e-01	3.207930e-02	1.986994e-01	-1.666201e-01
0.240505      	1.826892e-01	3.647546e-01	3.129992e-02	1.983392e-01	-1.670392e-01
0.241838      	1.834348e-01	3.659888e-01	3.031492e-02	1.985923e-01	-1.682774e-01
0.243169      	1.843444e-01	3.678455e-01	3.059491e-02	1.996418e-01	-1.690469e-01
0.244498      	1.842236e-01	3.679101e-01	2.978836e-02	1.991178e-01	-1.693295e-01
0.245826      	1.842388e-01	3.677367e-01	2.936456e-02	1.989211e-01	-1.695565e-01
0.247152      	1.844460e-01	3.680740e-01	2.944277e-02	1.991674e-01	-1.697246e-01
0.248476      	1.847785e-01	3.685889e-01	3.148527e-02	2.005212e-01	-1.690359e-01
0.249799      	1.849135e-01	3.691322e-01	2.976631e-02	1.997966e-01	-1.700303e-01
0.251121      	1.852493e-01	3.696625e-01	2.834898e-02	1.994238e-01	-1.710748e-01
0.252442      	1.868098e-01	3.727545e-01	2.781089e-02	2.007153e-01	-1.729044e-01
0.253761      	1.869766e-01	3.731185e-01	2.768261e-02	2.008179e-01	-1.731353e-01
0.255079      	1.870968e-01	3.734212e-01	2.603444e-02	2.001141e-01	-1.740796e-01
0.256396      	1.877612e-01	3.747150e-01	2.606983e-02	2.007962e-01	-1.747263e-01
0.257712      	1.891544e-01	3.773679e-01	2.458982e-02	2.014493e-01	-1.768595e-01
0.259026      	1.888702e-01	3.769967e-01	2.183383e-02	1.997871e-01	-1.779533e-01
0.260339      	1.903103e-01	3.794903e-01	2.102663e-02	2.008236e-01	-1.797969e-01
0.261651      	1.921062e-01	3.832106e-01	2.107906e-02	2.026457e-01	-1.815666e-01
0.262962      	1.923166e-01	3.837237e-01	2.045990e-02	2.025466e-01	-1.820867e-01
0.264272      	1.940440e-01	3.871388e-01	1.993489e-02	2.040115e-01	-1.840766e-01
0.26558       	1.944496e-01	3.883564e-01	1.634662e-02	2.026229e-01	-1.862763e-01
0.266888      	1.946395e-01	3.886620e-01	1.545442e-02	2.023667e-01	-1.869123e-01
0.268194      	1.946438e-01	3.885892e-01	1.547910e-02	2.023833e-01	-1.869042e-01
0.269498      	1.965975e-01	3.919974e-01	1.553147e-02	2.043633e-01	-1.888318e-01
0.270802      	1.981180e-01	3.954040e-01	1.536138e-02	2.057986e-01	-1.904373e-01
0.272105      	1.985590e-01	3.963795e-01	1.607167e-02	2.065948e-01	-1.905232e-01
0.273406      	1.988767e-01	3.970004e-01	1.393934e-02	2.058464e-01	-1.919071e-01
0.274706      	1.994454e-01	3.981401e-01	1.237723e-02	2.056340e-01	-1.932568e-01
0.276005      	2.002108e-01	3.994994e-01	1.206855e-02	2.062451e-01	-1.941765e-01
0.277303      	2.007920e-01	4.007660e-01	1.116365e-02	2.063738e-01	-1.952102e-01
0.2786        	2.015423e-01	4.024830e-01	1.238491e-02	2.077348e-01	-1.953499e-01
0.279896      	2.022573e-01	4.039289e-01	1.206423e-02	2.082895e-01	-1.962252e-01
0.281191      	2.029397e-01	4.052114e-01	1.018461e-02	2.080320e-01	-1.978474e-01
0.282484      	2.035508e-01	4.064266e-01	9.369020e-03	2.082353e-01	-1.988663e-01
0.283777      	2.035464e-01	4.066570e-01	7.233377e-03	2.071631e-01	-1.999297e-01
0.285068      	2.030385e-01	4.055725e-01	5.342466e-03	2.057097e-01	-2.003673e-01
0.286359      	2.035007e-01	4.064197e-01	4.369726e-03	2.056856e-01	-2.013159e-01
0.287649      	2.041402e-01	4.078306e-01	3.634939e-03	2.059577e-01	-2.023227e-01
0.288937      	2.048765e-01	4.091615e-01	3.092597e-03	2.064228e-01	-2.033302e-01
0.290225      	2.059130e-01	4.109131e-01	1.597362e-03	2.067117e-01	-2.051143e-01
0.291512      	2.067938e-01	4.125489e-01	-6.287243e-04	2.064795e-01	-2.071082e-01
0.292798      	2.076504e-01	4.145804e-01	-1.452088e-03	2.069243e-01	-2.083764e-01
0.294083      	2.081358e-01	4.156456e-01	-1.989604e-03	2.071410e-01	-2.091306e-01
0.295367      	2.091403e-01	4.174501e-01	-2.908609e-03	2.076860e-01	-2.105946e-01
0.296651      	2.099556e-01	4.189635e-01	-4.043293e-03	2.079340e-01	-2.119772e-01
0.297933      	2.090638e-01	4.180253e-01	-4.852174e-03	2.066377e-01	-2.114898e-01
0.299215      	2.102892e-01	4.197308e-01	-5.884764e-03	2.073468e-01	-2.132316e-01
0.300497      	2.110722e-01	4.214395e-01	-6.526784e-03	2.078088e-01	-2.143356e-01
0.301777      	2.115821e-01	4.223744e-01	-7.319355e-03	2.079224e-01	-2.152417e-01
0.303057      	2.124133e-01	4.238445e-01	-8.941408e-03	2.079426e-01	-2.168840e-01
0.304337      	2.131342e-01	4.255854e-01	-1.136765e-02	2.074503e-01	-2.188180e-01
0.305615      	2.140498e-01	4.273331e-01	-1.236099e-02	2.078693e-01	-2.202303e-01
0.306894      	2.148272e-01	4.287354e-01	-1.352580e-02	2.080643e-01	-2.215901e-01
0.308171      	2.153834e-01	4.297707e-01	-1.465704e-02	2.080549e-01	-2.227119e-01
0.309448      	2.159743e-01	4.307938e-01	-1.670172e-02	2.076234e-01	-2.243252e-01
0.310725      	2.167646e-01	4.324704e-01	-1.572254e-02	2.089033e-01	-2.246258e-01
0.312001      	2.173655e-01	4.338516e-01	-1.460801e-02	2.100615e-01	-2.246695e-01
0.313276      	2.175474e-01	4.342829e-01	-1.386291e-02	2.106160e-01	-2.244789e-01
0.314551      	2.180544e-01	4.353145e-01	-1.468318e-02	2.107128e-01	-2.253959e-01
0.315826      	2.191380e-01	4.374690e-01	-1.652843e-02	2.108738e-01	-2.274022e-01
0.3171        	2.190796e-01	4.373679e-01	-1.635707e-02	2.109011e-01	-2.272582e-01
0.318373      	2.200490e-01	4.392409e-01	-1.725431e-02	2.114219e-01	-2.286762e-01
0.319647      	2.207858e-01	4.406485e-01	-1.800905e-02	2.117813e-01	-2.297903e-01
0.320919      	2.215952e-01	4.422875e-01	-1.908111e-02	2.120547e-01	-2.311358e-01
0.322192      	2.224418e-01	4.439527e-01	-1.979527e-02	2.125442e-01	-2.323394e-01
0.323464      	2.233576e-01	4.458200e-01	-2.026819e-02	2.132235e-01	-2.334917e-01
0.324736      	2.241535e-01	4.473409e-01	-2.042353e-02	2.139418e-01	-2.343653e-01
0.326007      	2.251557e-01	4.496197e-01	-2.363829e-02	2.133366e-01	-2.369749e-01
0.327278      	2.262451e-01	4.516026e-01	-2.579919e-02	2.133455e-01	-2.391447e-01
0.328548      	2.270280e-01	4.531077e-01	-2.538536e-02	2.143353e-01	-2.397206e-01
0.329819      	2.278738e-01	4.547882e-01	-2.525130e-02	2.152482e-01	-2.404995e-01
0.331088      	2.290061e-01	4.570918e-01	-2.543057e-02	2.162909e-01	-2.417214e-01
0.332358      	2.299231e-01	4.588154e-01	-2.652931e-02	2.166585e-01	-2.431878e-01
0.333627      	2.310523e-01	4.611788e-01	-2.692643e-02	2.175891e-01	-2.445155e-01
0.334896      	2.320540e-01	4.630965e-01	-2.670815e-02	2.187000e-01	-2.454081e-01
0.336165      	2.328668e-01	4.647760e-01	-2.730216e-02	2.192158e-01	-2.465179e-01
0.337433      	2.336253e-01	4.662603e-01	-2.671832e-02	2.202661e-01	-2.469844e-01
0.338701      	2.347566e-01	4.685312e-01	-2.684926e-02	2.213320e-01	-2.481812e-01
0.339969      	2.356059e-01	4.703600e-01	-2.708517e-02	2.220633e-01	-2.491485e-01
0.341237      	2.368907e-01	4.727319e-01	-2.584699e-02	2.239672e-01	-2.498142e-01
0.342504      	2.369322e-01	4.727517e-01	-2.655613e-02	2.236541e-01	-2.502103e-01
0.343771      	2.371909e-01	4.733620e-01	-2.791233e-02	2.232347e-01	-2.511470e-01
0.345038      	2.383420e-01	4.759805e-01	-2.810308e-02	2.242904e-01	-2.523935e-01
0.346304      	2.394671e-01	4.781160e-01	-2.863405e-02	2.251500e-01	-2.537841e-01
0.34757       	2.390355e-01	4.774912e-01	-2.912064e-02	2.244752e-01	-2.535958e-01
0.348836      	2.393924e-01	4.779935e-01	-2.917292e-02	2.248060e-01	-2.539789e-01
0.350102      	2.394660e-01	4.782408e-01	-2.949466e-02	2.247187e-01	-2.542133e-01
0.351367      	2.396181e-01	4.785407e-01	-3.028863e-02	2.244738e-01	-2.547624e-01
0.352632      	2.408669e-01	4.808578e-01	-2.954309e-02	2.260953e-01	-2.556384e-01
0.353897      	2.421685e-01	4.832457e-01	-3.096264e-02	2.266872e-01	-2.576498e-01
0.355162      	2.427968e-01	4.844831e-01	-3.165774e-02	2.269679e-01	-2.586256e-01
0.356426      	2.435236e-01	4.861148e-01	-3.217419e-02	2.274365e-01	-2.596106e-01
0.35769       	2.444333e-01	4.878635e-01	-3.270504e-02	2.280808e-01	-2.607859e-01
0.358954      	2.461166e-01	4.912381e-01	-3.470452e-02	2.287643e-01	-2.634689e-01
0.360217      	2.466819e-01	4.922919e-01	-3.503351e-02	2.291651e-01	-2.641986e-01
0.36148       	2.473514e-01	4.937940e-01	-3.534398e-02	2.296794e-01	-2.650233e-01
0.362743      	2.479804e-01	4.951138e-01	-3.543782e-02	2.302615e-01	-2.656993e-01
0.364006      	2.490538e-01	4.971982e-01	-3.412281e-02	2.319924e-01	-2.661152e-01
0.365269      	2.499081e-01	4.985680e-01	-3.450917e-02	2.326535e-01	-2.671627e-01
0.366531      	2.509402e-01	5.007242e-01	-3.426476e-02	2.338078e-01	-2.680726e-01
0.367793      	2.514751e-01	5.020257e-01	-3.457894e-02	2.341857e-01	-2.687646e-01
0.369055      	2.519523e-01	5.032992e-01	-3.541664e-02	2.342439e-01	-2.696606e-01
0.370316      	2.525894e-01	5.043477e-01	-3.578016e-02	2.346993e-01	-2.704794e-01
0.371577      	2.532802e-01	5.058688e-01	-3.692192e-02	2.348192e-01	-2.717411e-01
0.372838      	2.537687e-01	5.065285e-01	-3.805015e-02	2.347436e-01	-2.727937e-01
0.374099      	2.547529e-01	5.084334e-01	-3.762547e-02	2.359401e-01	-2.735656e-01
0.375359      	2.556701e-01	5.102674e-01	-3.797736e-02	2.366814e-01	-2.746588e-01
0.376619      	2.561817e-01	5.113966e-01	-3.833356e-02	2.370149e-01	-2.753485e-01
0.377879      	2.569517e-01	5.129997e-01	-3.769273e-02	2.381054e-01	-2.757981e-01
0.379139      	2.579940e-01	5.150362e-01	-3.893165e-02	2.385281e-01	-2.774598e-01
0.380398      	2.587436e-01	5.166119e-01	-4.183525e-02	2.378260e-01	-2.796612e-01
0.381657      	2.592269e-01	5.175508e-01	-4.228708e-02	2.380833e-01	-2.803704e-01
0.382916      	2.597451e-01	5.184879e-01	-4.231723e-02	2.385865e-01	-2.809038e-01
0.384175      	2.608292e-01	5.205180e-01	-4.288220e-02	2.393881e-01	-2.822703e-01
0.385433      	2.617378e-01	5.225556e-01	-4.538479e-02	2.390454e-01	-2.844302e-01
0.386691      	2.626222e-01	5.242360e-01	-4.858450e-02	2.383300e-01	-2.869145e-01
0.387949      	2.633625e-01	5.256472e-01	-4.800031e-02	2.393623e-01	-2.873626e-01
0.389207      	2.641576e-01	5.274760e-01	-4.715844e-02	2.405784e-01	-2.877369e-01
0.390465      	2.649195e-01	5.291006e-01	-4.727142e-02	2.412838e-01	-2.885552e-01
0.391722      	2.655936e-01	5.302813e-01	-4.833566e-02	2.414257e-01	-2.897614e-01
0.392979      	2.664193e-01	5.318226e-01	-4.897484e-02	2.419319e-01	-2.909067e-01
0.394236      	2.673400e-01	5.336475e-01	-4.950761e-02	2.425862e-01	-2.920938e-01
0.395493      	2.682603e-01	5.355088e-01	-4.983576e-02	2.433424e-01	-2.931781e-01
0.396749      	2.689337e-01	5.370154e-01	-5.018687e-02	2.438402e-01	-2.940271e-01
0.398005      	2.696612e-01	5.383405e-01	-5.071421e-02	2.443041e-01	-2.950183e-01
0.399262      	2.703459e-01	5.398368e-01	-4.942550e-02	2.456331e-01	-2.950586e-01
0.400518      	2.711425e-01	5.413215e-01	-4.875920e-02	2.467629e-01	-2.955221e-01
0.401773      	2.713301e-01	5.418318e-01	-5.009842e-02	2.462809e-01	-2.963793e-01
0.403029      	2.717988e-01	5.428123e-01	-5.095690e-02	2.463204e-01	-2.972773e-01
0.404285      	2.717207e-01	5.428132e-01	-5.079353e-02	2.463240e-01	-2.971175e-01
0.40554       	2.728008e-01	5.447614e-01	-5.235388e-02	2.466238e-01	-2.989777e-01
0.406795      	2.733916e-01	5.463111e-01	-5.350722e-02	2.466380e-01	-3.001452e-01
0.408051      	2.737642e-01	5.468610e-01	-5.428419e-02	2.466221e-01	-3.009063e-01
0.409306      	2.750037e-01	5.490985e-01	-5.417474e-02	2.479163e-01	-3.020910e-01
0.410561      	2.756447e-01	5.503123e-01	-5.350087e-02	2.488942e-01	-3.023951e-01
0.411816      	2.765724e-01	5.522367e-01	-5.252712e-02	2.503088e-01	-3.028360e-01
0.413071      	2.770283e-01	5.530719e-01	-5.322122e-02	2.504177e-01	-3.036389e-01
0.414326      	2.773556e-01	5.537358e-01	-5.303609e-02	2.508375e-01	-3.038736e-01
0.41558       	2.776725e-01	5.543601e-01	-5.186640e-02	2.517393e-01	-3.036057e-01
0.416835      	2.786198e-01	5.563829e-01	-5.195391e-02	2.526428e-01	-3.045967e-01
0.41809       	2.800835e-01	5.590068e-01	-5.326805e-02	2.534495e-01	-3.067175e-01
0.419345      	2.811809e-01	5.610632e-01	-5.373092e-02	2.543155e-01	-3.080464e-01
0.420599      	2.822276e-01	5.631864e-01	-5.329683e-02	2.555792e-01	-3.088760e-01
0.421854      	2.838067e-01	5.663302e-01	-5.446388e-02	2.565748e-01	-3.110387e-01
0.423109      	2.849799e-01	5.687500e-01	-5.452772e-02	2.577160e-01	-3.122437e-01
0.424364      	2.855099e-01	5.701601e-01	-5.412756e-02	2.584461e-01	-3.125736e-01
0.425619      	2.864104e-01	5.720916e-01	-5.347304e-02	2.596739e-01	-3.131469e-01
0.426874      	2.867020e-01	5.725091e-01	-5.364051e-02	2.598818e-01	-3.135223e-01
0.428129      	2.876353e-01	5.743135e-01	-5.373866e-02	2.607660e-01	-3.145046e-01
0.429385      	2.883594e-01	5.757721e-01	-5.351627e-02	2.616012e-01	-3.151175e-01
0.43064       	2.893898e-01	5.778860e-01	-5.379305e-02	2.624933e-01	-3.162864e-01
0.431895      	2.901685e-01	5.793734e-01	-5.369845e-02	2.633193e-01	-3.170177e-01
0.433151      	2.913977e-01	5.816805e-01	-5.340445e-02	2.646955e-01	-3.180999e-01
0.434407      	2.931369e-01	5.851046e-01	-5.236979e-02	2.669520e-01	-3.193218e-01
0.435663      	2.939759e-01	5.870257e-01	-5.261527e-02	2.676682e-01	-3.202835e-01
0.436919      	2.942868e-01	5.875451e-01	-5.263546e-02	2.679690e-01	-3.206045e-01
0.438176      	2.951062e-01	5.891423e-01	-5.331064e-02	2.684508e-01	-3.217615e-01
0.439432      	2.957588e-01	5.903835e-01	-5.225044e-02	2.696336e-01	-3.218841e-01
0.440689      	2.965691e-01	5.921429e-01	-5.238747e-02	2.703753e-01	-3.227628e-01
0.441946      	2.968508e-01	5.927979e-01	-5.025063e-02	2.717255e-01	-3.219761e-01
0.443204      	2.981829e-01	5.953520e-01	-5.314882e-02	2.716085e-01	-3.247573e-01
0.444461      	2.987451e-01	5.964199e-01	-5.204941e-02	2.727204e-01	-3.247698e-01
0.445719      	3.001465e-01	5.990801e-01	-5.258121e-02	2.738559e-01	-3.264371e-01
0.446977      	3.007687e-01	6.004871e-01	-5.181041e-02	2.748635e-01	-3.266739e-01
0.448236      	3.015728e-01	6.022124e-01	-5.220109e-02	2.754722e-01	-3.276733e-01
0.449495      	3.022469e-01	6.035531e-01	-5.161561e-02	2.764391e-01	-3.280547e-01
0.450754      	3.031286e-01	6.053058e-01	-5.242493e-02	2.769161e-01	-3.293410e-01
0.452013      	3.039553e-01	6.068842e-01	-5.231904e-02	2.777958e-01	-3.301148e-01
0.453273      	3.045748e-01	6.081589e-01	-5.289474e-02	2.781274e-01	-3.310221e-01
0.454533      	3.054523e-01	6.099520e-01	-5.226221e-02	2.793212e-01	-3.315834e-01
0.455794      	3.061516e-01	6.112873e-01	-5.246640e-02	2.799184e-01	-3.323848e-01
0.457055      	3.071091e-01	6.133347e-01	-5.230892e-02	2.809546e-01	-3.332635e-01
0.458316      	3.074146e-01	6.138690e-01	-5.176982e-02	2.815296e-01	-3.332995e-01
0.459578      	3.084581e-01	6.160624e-01	-5.172091e-02	2.825977e-01	-3.343186e-01
0.46084       	3.091156e-01	6.172049e-01	-5.219912e-02	2.830161e-01	-3.352152e-01
0.462103      	3.105277e-01	6.196768e-01	-5.104298e-02	2.850062e-01	-3.360492e-01
0.463366      	3.115728e-01	6.214893e-01	-5.069650e-02	2.862246e-01	-3.369211e-01
0.464629      	3.125558e-01	6.237906e-01	-5.052399e-02	2.872938e-01	-3.378178e-01
0.465893      	3.136833e-01	6.262270e-01	-5.055580e-02	2.884054e-01	-3.389612e-01
0.467157      	3.143028e-01	6.276064e-01	-5.056619e-02	2.890197e-01	-3.395859e-01
0.468422      	3.148246e-01	6.286471e-01	-5.016843e-02	2.897404e-01	-3.399088e-01
0.469687      	3.156472e-01	6.302553e-01	-5.009710e-02	2.905986e-01	-3.406957e-01
0.470953      	3.165196e-01	6.319462e-01	-5.073299e-02	2.911531e-01	-3.418861e-01
0.472219      	3.175673e-01	6.341217e-01	-5.044279e-02	2.923459e-01	-3.427887e-01
0.473486      	3.181517e-01	6.353363e-01	-5.159423e-02	2.923546e-01	-3.439488e-01
0.474753      	3.189733e-01	6.369620e-01	-5.149451e-02	2.932260e-01	-3.447205e-01
0.476021      	3.198269e-01	6.385442e-01	-5.166545e-02	2.939941e-01	-3.456596e-01
0.477289      	3.207510e-01	6.404244e-01	-5.086946e-02	2.953162e-01	-3.461857e-01