# Time  areaAverage(p)
0.0  100.0
1.0  102.0
2.0  101.5
