# Force coefficients
# liftDir     : (0.000000e+00 1.000000e+00 0.000000e+00)
# dragDir     : (1.000000e+00 0.000000e+00 0.000000e+00)
# pitchAxis   : (0.000000e+00 1.000000e+00 0.000000e+00)
# magUInf     : 2.000000e+00
# lRef        : 2.000000e-01
# Aref        : 2.000000e-01
# CofR        : (3.000000e+00 2.000000e+00 0.000000e+00)
# Time        	Cm            	Cd            	Cl            	Cl(f)         	Cl(r)         
0             	0.000000e+00	0.000000e+00	0.000000e+00	0.000000e+00	0.000000e+00
0.00025       	3.153672e+03	1.261389e+03	-8.581244e-02	3.153629e+03	-3.153715e+03
0.0005        	-1.036385e+03	-4.142812e+02	7.819482e-02	-1.036346e+03	1.036424e+03
0.00075       	-6.531342e+02	-2.620538e+02	3.957642e-01	-6.529363e+02	6.533321e+02
0.001         	5.615727e+01	2.278271e+01	-5.640442e-03	5.615445e+01	-5.616009e+01
0.00125       	8.389849e+01	3.358077e+01	-2.780609e-02	8.388459e+01	-8.391239e+01
0.0015        	-2.485370e+00	-8.315308e-01	3.031049e-03	-2.483855e+00	2.486886e+00
0.00175       	-1.890353e+00	-7.429932e-01	-3.920223e-02	-1.909954e+00	1.870752e+00
0.002         	-3.120216e-01	-1.304557e-01	2.404928e-02	-2.999970e-01	3.240463e-01
0.00225       	3.105372e-01	1.205035e-01	9.317907e-03	3.151961e-01	-3.058782e-01
0.0025        	5.070390e-01	2.025739e-01	2.841988e-03	5.084600e-01	-5.056180e-01
0.00275       	5.673592e-01	2.277479e-01	1.211750e-03	5.679651e-01	-5.667534e-01
0.003         	5.575607e-01	2.213873e-01	3.269750e-05	5.575771e-01	-5.575444e-01
0.00325       	4.974303e-01	1.969167e-01	-2.051548e-04	4.973277e-01	-4.975329e-01
0.0035        	4.429066e-01	1.756190e-01	-7.086981e-05	4.428711e-01	-4.429420e-01
0.00375       	4.019863e-01	1.597601e-01	-1.070584e-04	4.019328e-01	-4.020398e-01
0.004         	3.730699e-01	1.484420e-01	-1.011256e-04	3.730193e-01	-3.731204e-01
0.00425       	3.517456e-01	1.400354e-01	3.191196e-05	3.517616e-01	-3.517297e-01
0.0045        	3.365029e-01	1.341453e-01	2.766441e-04	3.366412e-01	-3.363646e-01
0.00475       	3.415955e-01	1.362790e-01	-2.422919e-05	3.415834e-01	-3.416076e-01
0.005         	3.275165e-01	1.307206e-01	2.856280e-05	3.275308e-01	-3.275023e-01
0.00525       	3.209661e-01	1.279864e-01	-1.498846e-04	3.208912e-01	-3.210411e-01
0.0055        	3.128249e-01	1.245909e-01	9.451252e-05	3.128722e-01	-3.127777e-01
0.00575       	3.019054e-01	1.202085e-01	1.158716e-04	3.019633e-01	-3.018474e-01
0.006         	2.908850e-01	1.158215e-01	1.485577e-04	2.909593e-01	-2.908107e-01
0.00625       	2.803936e-01	1.117065e-01	2.921118e-04	2.805397e-01	-2.802475e-01
0.0065        	2.735677e-01	1.089927e-01	1.002729e-04	2.736178e-01	-2.735176e-01
0.00675       	2.648909e-01	1.055478e-01	7.360064e-05	2.649277e-01	-2.648541e-01
0.007         	2.591468e-01	1.033061e-01	-5.863347e-05	2.591174e-01	-2.591761e-01
0.00725       	2.546032e-01	1.015268e-01	3.308619e-05	2.546197e-01	-2.545866e-01
0.0075        	2.512441e-01	1.002046e-01	1.482232e-04	2.513182e-01	-2.511700e-01
0.00775       	2.508748e-01	1.000961e-01	1.634252e-04	2.509565e-01	-2.507931e-01
0.008         	2.485894e-01	9.923291e-02	3.949478e-04	2.487869e-01	-2.483919e-01
0.00825       	2.451961e-01	9.782808e-02	2.989954e-04	2.453456e-01	-2.450466e-01
0.0085        	2.439284e-01	9.737723e-02	3.367822e-04	2.440968e-01	-2.437600e-01
0.00875       	2.414914e-01	9.645009e-02	3.531684e-04	2.416680e-01	-2.413148e-01
0.009         	2.395997e-01	9.569973e-02	3.580003e-04	2.397787e-01	-2.394207e-01
0.00925       	2.363515e-01	9.440432e-02	3.263935e-04	2.365147e-01	-2.361883e-01
0.0095        	2.326921e-01	9.298005e-02	3.563662e-04	2.328703e-01	-2.325139e-01
0.00975       	2.304976e-01	9.208689e-02	2.532529e-04	2.306243e-01	-2.303710e-01
0.01          	2.270053e-01	9.071391e-02	3.394315e-04	2.271750e-01	-2.268356e-01
0.01025       	2.256797e-01	9.017081e-02	3.163527e-04	2.258379e-01	-2.255215e-01
0.0105        	2.213490e-01	8.847779e-02	2.475099e-04	2.214728e-01	-2.212253e-01
0.01075       	2.189537e-01	8.751133e-02	3.188879e-04	2.191131e-01	-2.187942e-01
0.011         	2.181021e-01	8.717430e-02	3.448001e-04	2.182745e-01	-2.179297e-01
0.01125       	2.172909e-01	8.685792e-02	6.660683e-04	2.176239e-01	-2.169579e-01
0.0115        	2.172992e-01	8.685687e-02	5.367490e-04	2.175675e-01	-2.170308e-01
0.01175       	2.166901e-01	8.661724e-02	4.189295e-04	2.168995e-01	-2.164806e-01
0.012         	2.155427e-01	8.614942e-02	4.221091e-04	2.157537e-01	-2.153316e-01
0.01225       	2.129810e-01	8.513561e-02	3.686527e-04	2.131653e-01	-2.127967e-01
0.0125        	2.114235e-01	8.451450e-02	3.739212e-04	2.116105e-01	-2.112365e-01
0.01275       	2.110480e-01	8.436161e-02	3.053589e-04	2.112006e-01	-2.108953e-01
0.013         	2.099243e-01	8.387759e-02	5.173533e-04	2.101830e-01	-2.096656e-01
0.01325       	2.073223e-01	8.284105e-02	4.702499e-04	2.075574e-01	-2.070872e-01
0.0135        	2.052946e-01	8.201985e-02	3.933424e-04	2.054913e-01	-2.050979e-01
0.01375       	2.037422e-01	8.139638e-02	3.881187e-04	2.039363e-01	-2.035481e-01
0.014         	2.038892e-01	8.144346e-02	5.859271e-04	2.041821e-01	-2.035962e-01
0.01425       	2.033572e-01	8.122697e-02	2.476118e-04	2.034810e-01	-2.032334e-01
0.0145        	2.021257e-01	8.073179e-02	4.559394e-04	2.023537e-01	-2.018977e-01
0.01475       	2.012750e-01	8.040326e-02	3.467356e-04	2.014484e-01	-2.011016e-01
0.015         	2.009217e-01	8.023798e-02	3.681659e-04	2.011058e-01	-2.007376e-01
0.01525       	1.995794e-01	7.968477e-02	2.930385e-04	1.997259e-01	-1.994328e-01
0.0155        	1.981726e-01	7.907705e-02	3.711227e-04	1.983582e-01	-1.979870e-01
0.01575       	1.974983e-01	7.883124e-02	3.658653e-04	1.976812e-01	-1.973153e-01
0.016         	1.979669e-01	7.907080e-02	3.582783e-04	1.981461e-01	-1.977878e-01
0.01625       	1.986506e-01	7.938519e-02	3.419466e-04	1.988216e-01	-1.984796e-01
0.0165        	2.008674e-01	8.026526e-02	4.111798e-04	2.010730e-01	-2.006618e-01
0.01675       	2.028966e-01	8.105913e-02	3.609823e-04	2.030771e-01	-2.027161e-01
0.017         	2.045520e-01	8.170341e-02	2.642202e-04	2.046842e-01	-2.044199e-01
0.01725       	2.055835e-01	8.210221e-02	3.425901e-04	2.057548e-01	-2.054123e-01
0.0175        	2.067313e-01	8.255435e-02	3.738866e-04	2.069183e-01	-2.065444e-01
0.01775       	2.083468e-01	8.318209e-02	3.522814e-04	2.085229e-01	-2.081706e-01
0.018         	2.095323e-01	8.365018e-02	3.589330e-04	2.097117e-01	-2.093528e-01
0.01825       	2.096432e-01	8.368493e-02	3.395577e-04	2.098130e-01	-2.094734e-01
0.0185        	2.101215e-01	8.386227e-02	3.445299e-04	2.102937e-01	-2.099492e-01
0.01875       	2.110553e-01	8.422170e-02	3.402138e-04	2.112254e-01	-2.108852e-01
0.019         	2.126853e-01	8.486259e-02	3.408673e-04	2.128558e-01	-2.125149e-01
0.01925       	2.130080e-01	8.500901e-02	3.401324e-04	2.131781e-01	-2.128380e-01
0.0195        	2.135047e-01	8.520275e-02	3.359157e-04	2.136727e-01	-2.133368e-01
0.01975       	2.152573e-01	8.592030e-02	3.420421e-04	2.154283e-01	-2.150863e-01
0.02          	2.161182e-01	8.629854e-02	3.308564e-04	2.162837e-01	-2.159528e-01
0.02025       	2.163834e-01	8.646751e-02	3.480501e-04	2.165574e-01	-2.162093e-01
0.0205        	2.168076e-01	8.664388e-02	3.323417e-04	2.169738e-01	-2.166414e-01
0.02075       	2.174287e-01	8.691126e-02	3.355580e-04	2.175965e-01	-2.172609e-01
0.021         	2.181206e-01	8.719415e-02	3.434151e-04	2.182923e-01	-2.179488e-01
0.02125       	2.187693e-01	8.745378e-02	3.438821e-04	2.189413e-01	-2.185974e-01
0.0215        	2.195259e-01	8.777119e-02	3.399138e-04	2.196958e-01	-2.193559e-01
0.02175       	2.200178e-01	8.797330e-02	3.406703e-04	2.201882e-01	-2.198475e-01
0.022         	2.203709e-01	8.811215e-02	3.260930e-04	2.205339e-01	-2.202078e-01
0.02225       	2.213453e-01	8.850507e-02	3.290414e-04	2.215098e-01	-2.211808e-01
0.0225        	2.222280e-01	8.885921e-02	3.203505e-04	2.223882e-01	-2.220679e-01
0.02275       	2.229218e-01	8.913849e-02	3.277298e-04	2.230856e-01	-2.227579e-01
0.023         	2.236454e-01	8.942832e-02	3.263452e-04	2.238086e-01	-2.234822e-01
0.02325       	2.238294e-01	8.950132e-02	3.267956e-04	2.239928e-01	-2.236660e-01
0.0235        	2.245142e-01	8.977015e-02	3.390364e-04	2.246837e-01	-2.243446e-01
0.02375       	2.247393e-01	8.984490e-02	3.305503e-04	2.249046e-01	-2.245740e-01
0.024         	2.255626e-01	9.031599e-02	1.676497e-04	2.256464e-01	-2.254788e-01
0.02425       	2.324015e-01	9.286830e-02	4.276174e-04	2.326153e-01	-2.321877e-01
0.0245        	2.315856e-01	9.281734e-02	9.460491e-05	2.316329e-01	-2.315383e-01
0.02475       	2.311834e-01	9.212419e-02	6.539169e-04	2.315104e-01	-2.308565e-01
0.025         	2.310572e-01	9.250593e-02	1.751488e-04	2.311448e-01	-2.309696e-01
0.02525       	2.321428e-01	9.285153e-02	2.973026e-04	2.322914e-01	-2.319941e-01
0.0255        	2.332498e-01	9.322925e-02	3.612388e-04	2.334304e-01	-2.330692e-01
0.02575       	2.341512e-01	9.363173e-02	3.022919e-04	2.343023e-01	-2.340000e-01
0.026         	2.353607e-01	9.411254e-02	3.121137e-04	2.355168e-01	-2.352047e-01
0.02625       	2.367441e-01	9.465680e-02	3.322933e-04	2.369102e-01	-2.365779e-01
0.0265        	2.372888e-01	9.488512e-02	3.119551e-04	2.374447e-01	-2.371328e-01
0.02675       	2.380664e-01	9.518867e-02	3.261828e-04	2.382295e-01	-2.379034e-01
0.027         	2.390849e-01	9.558428e-02	3.467251e-04	2.392582e-01	-2.389115e-01
0.02725       	2.399458e-01	9.595231e-02	3.113681e-04	2.401014e-01	-2.397901e-01
0.0275        	2.404563e-01	9.615927e-02	3.133967e-04	2.406130e-01	-2.402996e-01
0.02775       	2.407444e-01	9.626806e-02	3.650020e-04	2.409269e-01	-2.405619e-01
0.028         	2.421152e-01	9.676313e-02	3.554528e-04	2.422929e-01	-2.419375e-01
0.02825       	2.468177e-01	9.865101e-02	3.151594e-04	2.469752e-01	-2.466601e-01
0.0285        	2.478725e-01	9.913495e-02	3.352488e-04	2.480401e-01	-2.477048e-01
0.02875       	2.472149e-01	9.885173e-02	3.091658e-04	2.473695e-01	-2.470603e-01
0.029         	2.483261e-01	9.927432e-02	3.446174e-04	2.484984e-01	-2.481537e-01
0.02925       	2.504883e-01	1.001362e-01	3.022829e-04	2.506394e-01	-2.503371e-01
0.0295        	2.519309e-01	1.007269e-01	3.413461e-04	2.521016e-01	-2.517603e-01
0.02975       	2.529705e-01	1.011219e-01	2.985850e-04	2.531197e-01	-2.528212e-01
0.03          	2.539937e-01	1.015790e-01	4.225826e-04	2.542049e-01	-2.537824e-01
0.03025       	2.540866e-01	1.017110e-01	3.516620e-04	2.542624e-01	-2.539107e-01
0.0305        	2.541870e-01	1.016731e-01	2.280475e-04	2.543010e-01	-2.540730e-01
0.03075       	2.576876e-01	1.028439e-01	2.571171e-04	2.578161e-01	-2.575590e-01
0.031         	2.612294e-01	1.043617e-01	4.187225e-04	2.614387e-01	-2.610200e-01
0.03125       	2.604152e-01	1.044274e-01	3.470354e-04	2.605887e-01	-2.602417e-01
0.0315        	2.591988e-01	1.035315e-01	3.198529e-04	2.593587e-01	-2.590389e-01
0.03175       	2.610591e-01	1.043284e-01	3.216465e-04	2.612199e-01	-2.608983e-01
0.032         	2.666318e-01	1.066057e-01	3.285349e-04	2.667960e-01	-2.664675e-01
0.03225       	2.679020e-01	1.071204e-01	3.361359e-04	2.680700e-01	-2.677339e-01
0.0325        	2.694587e-01	1.077141e-01	3.179899e-04	2.696177e-01	-2.692997e-01
0.03275       	2.644706e-01	1.058669e-01	3.887060e-04	2.646650e-01	-2.642763e-01
0.033         	2.659663e-01	1.062913e-01	3.394626e-04	2.661360e-01	-2.657966e-01
0.03325       	2.701349e-01	1.079735e-01	3.525585e-04	2.703112e-01	-2.699586e-01
0.0335        	2.740795e-01	1.095835e-01	3.410977e-04	2.742500e-01	-2.739089e-01
0.03375       	2.751317e-01	1.100345e-01	3.479992e-04	2.753057e-01	-2.749577e-01
0.034         	2.773584e-01	1.109030e-01	3.270402e-04	2.775219e-01	-2.771949e-01
0.03425       	2.779713e-01	1.111288e-01	3.354358e-04	2.781390e-01	-2.778035e-01
0.0345        	2.794910e-01	1.117479e-01	3.558269e-04	2.796689e-01	-2.793130e-01
0.03475       	2.808522e-01	1.123060e-01	3.384785e-04	2.810214e-01	-2.806830e-01
0.035         	2.818980e-01	1.127197e-01	3.552371e-04	2.820756e-01	-2.817203e-01
0.03525       	2.829150e-01	1.131203e-01	3.483644e-04	2.830892e-01	-2.827408e-01
0.0355        	2.850380e-01	1.139593e-01	3.614922e-04	2.852188e-01	-2.848573e-01
0.03575       	2.862083e-01	1.144395e-01	3.480579e-04	2.863823e-01	-2.860343e-01
0.036         	2.875717e-01	1.149714e-01	3.566560e-04	2.877501e-01	-2.873934e-01
0.03625       	2.885750e-01	1.153750e-01	3.555184e-04	2.887528e-01	-2.883972e-01
0.0365        	2.900841e-01	1.159942e-01	3.570134e-04	2.902626e-01	-2.899056e-01
0.03675       	2.912085e-01	1.164274e-01	3.604186e-04	2.913887e-01	-2.910283e-01
0.037         	2.913205e-01	1.164847e-01	3.546387e-04	2.914978e-01	-2.911432e-01
0.03725       	2.967981e-01	1.187197e-01	3.919395e-04	2.969941e-01	-2.966022e-01
0.0375        	2.971093e-01	1.187645e-01	3.318839e-04	2.972752e-01	-2.969434e-01
0.03775       	3.014650e-01	1.205440e-01	3.572337e-04	3.016436e-01	-3.012864e-01
0.038         	2.953605e-01	1.181165e-01	3.767084e-04	2.955488e-01	-2.951721e-01
0.03825       	3.003140e-01	1.200378e-01	3.521934e-04	3.004901e-01	-3.001379e-01
0.0385        	3.033926e-01	1.212861e-01	3.461458e-04	3.035656e-01	-3.032195e-01
0.03875       	3.069165e-01	1.227297e-01	3.760940e-04	3.071045e-01	-3.067284e-01
0.039         	3.094222e-01	1.237306e-01	3.856115e-04	3.096150e-01	-3.092294e-01
0.03925       	3.100075e-01	1.239664e-01	3.694667e-04	3.101922e-01	-3.098228e-01
0.0395        	3.116665e-01	1.246178e-01	3.803285e-04	3.118567e-01	-3.114764e-01
0.03975       	3.131421e-01	1.252140e-01	3.659850e-04	3.133251e-01	-3.129591e-01
0.04          	3.142736e-01	1.256726e-01	3.676922e-04	3.144574e-01	-3.140898e-01
0.04025       	3.152219e-01	1.260625e-01	3.754479e-04	3.154096e-01	-3.150342e-01
0.0405        	3.169710e-01	1.265814e-01	3.730217e-04	3.171575e-01	-3.167845e-01
0.04075       	3.210121e-01	1.285193e-01	3.714200e-04	3.211978e-01	-3.208264e-01
0.041         	3.214517e-01	1.281709e-01	3.780134e-04	3.216407e-01	-3.212627e-01
0.04125       	3.222278e-01	1.293620e-01	3.714887e-04	3.224135e-01	-3.220421e-01
0.0415        	3.237448e-01	1.290772e-01	3.821191e-04	3.239358e-01	-3.235537e-01
0.04175       	3.253894e-01	1.302687e-01	3.788848e-04	3.255789e-01	-3.252000e-01
0.042         	3.259820e-01	1.303259e-01	3.742510e-04	3.261692e-01	-3.257949e-01
0.04225       	3.283173e-01	1.311810e-01	4.135425e-04	3.285241e-01	-3.281105e-01
0.0425        	3.341691e-01	1.336970e-01	3.291666e-04	3.343337e-01	-3.340045e-01
0.04275       	3.351190e-01	1.338865e-01	4.181313e-04	3.353281e-01	-3.349100e-01
0.043         	3.348103e-01	1.339941e-01	3.315505e-04	3.349761e-01	-3.346445e-01
0.04325       	3.372692e-01	1.347735e-01	3.958520e-04	3.374671e-01	-3.370713e-01
0.0435        	3.383679e-01	1.353076e-01	3.748582e-04	3.385553e-01	-3.381805e-01
0.04375       	3.457454e-01	1.382426e-01	3.944919e-04	3.459426e-01	-3.455481e-01
0.044         	3.433063e-01	1.372704e-01	3.678010e-04	3.434902e-01	-3.431224e-01
0.04425       	3.488936e-01	1.395050e-01	3.964704e-04	3.490918e-01	-3.486953e-01
0.0445        	3.452253e-01	1.380261e-01	3.869131e-04	3.454188e-01	-3.450319e-01
0.04475       	3.493168e-01	1.396811e-01	3.877275e-04	3.495106e-01	-3.491229e-01
0.045         	3.523340e-01	1.408822e-01	4.144688e-04	3.525412e-01	-3.521268e-01
0.04525       	3.531198e-01	1.411871e-01	3.771606e-04	3.533084e-01	-3.529312e-01
0.0455        	3.538803e-01	1.414932e-01	3.913983e-04	3.540760e-01	-3.536846e-01
0.04575       	3.543888e-01	1.417211e-01	3.109294e-04	3.545443e-01	-3.542333e-01
0.046         	3.580414e-01	1.431507e-01	4.320593e-04	3.582574e-01	-3.578254e-01
0.04625       	3.601568e-01	1.440049e-01	4.039183e-04	3.603588e-01	-3.599548e-01
0.0465        	3.614308e-01	1.445070e-01	3.774441e-04	3.616195e-01	-3.612421e-01
0.04675       	3.651609e-01	1.459957e-01	3.944545e-04	3.653581e-01	-3.649636e-01
0.047         	3.677803e-01	1.470543e-01	3.873696e-04	3.679740e-01	-3.675866e-01
0.04725       	3.702678e-01	1.480346e-01	3.810601e-04	3.704583e-01	-3.700773e-01
0.0475        	3.726143e-01	1.490016e-01	3.984890e-04	3.728136e-01	-3.724151e-01
0.04775       	3.737272e-01	1.494461e-01	4.026109e-04	3.739285e-01	-3.735259e-01
0.048         	3.753729e-01	1.500932e-01	4.000932e-04	3.755730e-01	-3.751729e-01
0.04825       	3.762840e-01	1.504704e-01	4.003346e-04	3.764842e-01	-3.760839e-01
0.0485        	3.777045e-01	1.510265e-01	3.936015e-04	3.779013e-01	-3.775077e-01
0.04875       	3.801395e-01	1.519943e-01	3.985463e-04	3.803388e-01	-3.799403e-01
0.049         	3.830026e-01	1.531537e-01	3.915456e-04	3.831983e-01	-3.828068e-01
0.04925       	3.852239e-01	1.540324e-01	3.877895e-04	3.854178e-01	-3.850300e-01
0.0495        	3.875711e-01	1.549671e-01	3.413616e-04	3.877418e-01	-3.874005e-01
0.04975       	3.896730e-01	1.558110e-01	5.393480e-04	3.899427e-01	-3.894033e-01
0.05          	3.916917e-01	1.566207e-01	5.040676e-04	3.919437e-01	-3.914396e-01
0.05025       	3.936994e-01	1.574253e-01	3.615674e-04	3.938802e-01	-3.935186e-01
0.0505        	3.960761e-01	1.583764e-01	3.856534e-04	3.962689e-01	-3.958833e-01
0.05075       	3.985075e-01	1.593565e-01	4.080386e-04	3.987116e-01	-3.983035e-01
0.051         	4.009804e-01	1.603421e-01	3.989614e-04	4.011799e-01	-4.007809e-01
0.05125       	4.023765e-01	1.609191e-01	4.425991e-04	4.025978e-01	-4.021552e-01
0.0515        	4.049375e-01	1.618744e-01	3.472919e-04	4.051112e-01	-4.047639e-01
0.05175       	4.092683e-01	1.636172e-01	3.779518e-04	4.094573e-01	-4.090793e-01
0.052         	4.119677e-01	1.647246e-01	4.130570e-04	4.121742e-01	-4.117612e-01
0.05225       	4.139835e-01	1.655354e-01	4.181809e-04	4.141926e-01	-4.137745e-01
0.0525        	4.168206e-01	1.666750e-01	4.168373e-04	4.170290e-01	-4.166121e-01
0.05275       	4.186519e-01	1.674488e-01	4.204712e-04	4.188621e-01	-4.184417e-01
0.053         	4.207470e-01	1.682349e-01	4.090997e-04	4.209516e-01	-4.205425e-01
0.05325       	4.235603e-01	1.693628e-01	4.106555e-04	4.237656e-01	-4.233550e-01
0.0535        	4.246562e-01	1.698082e-01	4.154284e-04	4.248639e-01	-4.244485e-01
0.05375       	4.258676e-01	1.703560e-01	4.143837e-04	4.260748e-01	-4.256604e-01
0.054         	4.260951e-01	1.704163e-01	3.830945e-04	4.262866e-01	-4.259035e-01
0.05425       	4.282496e-01	1.711745e-01	4.173713e-04	4.284583e-01	-4.280409e-01
0.0545        	4.341874e-01	1.735584e-01	4.039649e-04	4.343894e-01	-4.339854e-01
0.05475       	4.374940e-01	1.749406e-01	3.916785e-04	4.376899e-01	-4.372982e-01
0.055         	4.387095e-01	1.754010e-01	4.309789e-04	4.389250e-01	-4.384940e-01
0.05525       	4.398160e-01	1.758860e-01	4.062665e-04	4.400191e-01	-4.396128e-01
0.0555        	4.419639e-01	1.767346e-01	3.695004e-04	4.421486e-01	-4.417791e-01
0.05575       	4.447391e-01	1.778442e-01	5.431802e-04	4.450107e-01	-4.444675e-01
0.056         	4.479124e-01	1.791053e-01	4.797844e-04	4.481523e-01	-4.476725e-01
0.05625       	4.511061e-01	1.803991e-01	3.734908e-04	4.512928e-01	-4.509193e-01
0.0565        	4.519308e-01	1.807116e-01	3.963811e-04	4.521290e-01	-4.517326e-01
0.05675       	4.542039e-01	1.816243e-01	4.144030e-04	4.544111e-01	-4.539967e-01
0.057         	4.565896e-01	1.825765e-01	4.088095e-04	4.567940e-01	-4.563852e-01
0.05725       	4.589377e-01	1.835180e-01	4.091221e-04	4.591422e-01	-4.587331e-01
0.0575        	4.612775e-01	1.844513e-01	4.134746e-04	4.614843e-01	-4.610708e-01
0.05775       	4.638228e-01	1.854735e-01	4.218300e-04	4.640337e-01	-4.636119e-01
0.058         	4.663491e-01	1.864834e-01	4.328218e-04	4.665655e-01	-4.661327e-01
0.05825       	4.692167e-01	1.876093e-01	3.767121e-04	4.694051e-01	-4.690284e-01
0.0585        	4.725201e-01	1.889325e-01	3.939274e-04	4.727171e-01	-4.723232e-01
0.05875       	4.754281e-01	1.901028e-01	4.145146e-04	4.756354e-01	-4.752209e-01
0.059         	4.783445e-01	1.912755e-01	4.265451e-04	4.785578e-01	-4.781313e-01
0.05925       	4.806944e-01	1.922197e-01	4.256081e-04	4.809072e-01	-4.804816e-01
0.0595        	4.825401e-01	1.929534e-01	4.318707e-04	4.827560e-01	-4.823242e-01
0.05975       	4.854143e-01	1.940944e-01	4.990862e-04	4.856638e-01	-4.851648e-01
0.06          	4.903148e-01	1.960594e-01	2.920713e-04	4.904608e-01	-4.901687e-01
0.06025       	4.948445e-01	1.978920e-01	4.084353e-04	4.950487e-01	-4.946403e-01
0.0605        	4.964054e-01	1.984835e-01	4.079652e-04	4.966094e-01	-4.962014e-01
0.06075       	5.001846e-01	1.999697e-01	3.977196e-04	5.003834e-01	-4.999857e-01
0.061         	5.040371e-01	2.015406e-01	4.243611e-04	5.042493e-01	-5.038249e-01
0.06125       	5.071261e-01	2.028027e-01	4.373234e-04	5.073447e-01	-5.069074e-01
0.0615        	5.084724e-01	2.033351e-01	4.050208e-04	5.086750e-01	-5.082699e-01
0.06175       	5.105560e-01	2.041651e-01	4.060813e-04	5.107590e-01	-5.103529e-01
0.062         	5.133343e-01	2.052565e-01	3.948446e-04	5.135317e-01	-5.131368e-01
0.06225       	5.162237e-01	2.064650e-01	3.863914e-04	5.164169e-01	-5.160305e-01
0.0625        	5.169131e-01	2.066723e-01	4.193169e-04	5.171228e-01	-5.167035e-01
0.06275       	5.203615e-01	2.080766e-01	4.097854e-04	5.205664e-01	-5.201566e-01
0.063         	5.225933e-01	2.089731e-01	4.093730e-04	5.227980e-01	-5.223886e-01
0.06325       	5.259219e-01	2.103005e-01	4.109556e-04	5.261273e-01	-5.257164e-01
0.0635        	5.317647e-01	2.126340e-01	4.119379e-04	5.319706e-01	-5.315587e-01
0.06375       	5.332654e-01	2.132448e-01	4.196803e-04	5.334753e-01	-5.330556e-01
0.064         	5.344049e-01	2.136881e-01	4.064869e-04	5.346081e-01	-5.342017e-01
0.06425       	5.374548e-01	2.149153e-01	4.090807e-04	5.376594e-01	-5.372503e-01
0.0645        	5.400999e-01	2.159738e-01	4.087062e-04	5.403042e-01	-5.398955e-01
0.06475       	5.426969e-01	2.170139e-01	4.126478e-04	5.429032e-01	-5.424906e-01
0.065         	5.454971e-01	2.181337e-01	4.208376e-04	5.457075e-01	-5.452866e-01
0.06525       	5.476731e-01	2.190167e-01	4.474575e-04	5.478969e-01	-5.474494e-01
0.0655        	5.502527e-01	2.200394e-01	4.297887e-04	5.504676e-01	-5.500378e-01
0.06575       	5.530254e-01	2.211428e-01	4.218544e-04	5.532363e-01	-5.528144e-01
0.066         	5.560166e-01	2.223389e-01	4.151602e-04	5.562242e-01	-5.558090e-01
0.06625       	5.593136e-01	2.236570e-01	4.132538e-04	5.595202e-01	-5.591070e-01
0.0665        	5.628830e-01	2.250932e-01	4.354166e-04	5.631007e-01	-5.626653e-01
0.06675       	5.637420e-01	2.254439e-01	4.632869e-04	5.639736e-01	-5.635103e-01
0.067         	5.639692e-01	2.255116e-01	4.300008e-04	5.641842e-01	-5.637542e-01
0.06725       	5.677589e-01	2.270326e-01	4.242835e-04	5.679710e-01	-5.675467e-01
0.0675        	5.712367e-01	2.284242e-01	4.491453e-04	5.714612e-01	-5.710121e-01
0.06775       	5.707567e-01	2.282326e-01	4.406313e-04	5.709770e-01	-5.705364e-01
0.068         	5.735368e-01	2.293589e-01	4.387613e-04	5.737562e-01	-5.733174e-01
0.06825       	5.756334e-01	2.301925e-01	4.402496e-04	5.758535e-01	-5.754132e-01
0.0685        	5.775636e-01	2.309887e-01	4.495607e-04	5.777884e-01	-5.773388e-01
0.06875       	5.787928e-01	2.314246e-01	3.559829e-04	5.789708e-01	-5.786148e-01
0.069         	5.822690e-01	2.327975e-01	3.446493e-04	5.824413e-01	-5.820967e-01
0.06925       	5.858156e-01	2.342569e-01	4.677542e-04	5.860495e-01	-5.855817e-01
0.0695        	5.890356e-01	2.355485e-01	4.575626e-04	5.892643e-01	-5.888068e-01
0.06975       	5.919237e-01	2.366746e-01	4.735292e-04	5.921605e-01	-5.916870e-01
0.07          	5.958226e-01	2.382986e-01	3.398324e-04	5.959925e-01	-5.956527e-01
0.07025       	5.981042e-01	2.391811e-01	4.416886e-04	5.983251e-01	-5.978834e-01
0.0705        	6.007279e-01	2.402254e-01	4.362954e-04	6.009461e-01	-6.005098e-01
0.07075       	6.032019e-01	2.412156e-01	4.280585e-04	6.034160e-01	-6.029879e-01
0.071         	6.057467e-01	2.422304e-01	4.205761e-04	6.059570e-01	-6.055364e-01
0.07125       	6.083024e-01	2.432545e-01	4.129329e-04	6.085088e-01	-6.080959e-01
0.0715        	6.105167e-01	2.441471e-01	3.986765e-04	6.107160e-01	-6.103173e-01
0.07175       	6.140590e-01	2.455339e-01	4.713377e-04	6.142947e-01	-6.138233e-01
0.072         	6.190203e-01	2.475388e-01	4.204606e-04	6.192305e-01	-6.188101e-01
0.07225       	6.218711e-01	2.486798e-01	4.138870e-04	6.220781e-01	-6.216642e-01
0.0725        	6.245821e-01	2.497599e-01	4.519762e-04	6.248081e-01	-6.243561e-01
0.07275       	6.277708e-01	2.510372e-01	4.227247e-04	6.279822e-01	-6.275595e-01
0.073         	6.320929e-01	2.527781e-01	4.084008e-04	6.322971e-01	-6.318887e-01
0.07325       	6.361079e-01	2.543756e-01	3.816670e-04	6.362988e-01	-6.359171e-01
0.0735        	6.398923e-01	2.558963e-01	5.109242e-04	6.401477e-01	-6.396368e-01
0.07375       	6.379182e-01	2.551069e-01	4.569069e-04	6.381467e-01	-6.376898e-01
0.074         	6.402241e-01	2.560203e-01	4.181906e-04	6.404332e-01	-6.400150e-01
0.07425       	6.428844e-01	2.570831e-01	4.303170e-04	6.430995e-01	-6.426692e-01
0.0745        	6.473428e-01	2.588673e-01	4.274279e-04	6.475565e-01	-6.471291e-01
0.07475       	6.504020e-01	2.600918e-01	4.215905e-04	6.506128e-01	-6.501912e-01
0.075         	6.531567e-01	2.611954e-01	4.217140e-04	6.533676e-01	-6.529459e-01
0.07525       	6.560392e-01	2.623471e-01	4.199084e-04	6.562492e-01	-6.558293e-01
0.0755        	6.590499e-01	2.635486e-01	4.231524e-04	6.592615e-01	-6.588383e-01
0.07575       	6.623322e-01	2.648443e-01	4.170042e-04	6.625407e-01	-6.621237e-01
0.076         	6.656377e-01	2.662454e-01	4.060795e-04	6.658408e-01	-6.654347e-01
0.07625       	6.684912e-01	2.673092e-01	4.326497e-04	6.687075e-01	-6.682749e-01
0.0765        	6.729424e-01	2.690833e-01	3.859684e-04	6.731354e-01	-6.727495e-01
0.07675       	6.754467e-01	2.701241e-01	4.279169e-04	6.756607e-01	-6.752327e-01
0.077         	6.757333e-01	2.703581e-01	4.624769e-04	6.759646e-01	-6.755021e-01
0.07725       	6.784045e-01	2.712651e-01	4.253609e-04	6.786172e-01	-6.781919e-01
0.0775        	6.784252e-01	2.712737e-01	4.342413e-04	6.786423e-01	-6.782081e-01
0.07775       	6.812901e-01	2.724342e-01	4.268472e-04	6.815036e-01	-6.810767e-01
0.078         	6.848925e-01	2.738529e-01	4.125130e-04	6.850988e-01	-6.846863e-01
0.07825       	6.873920e-01	2.749265e-01	3.601572e-04	6.875721e-01	-6.872119e-01
0.0785        	6.899460e-01	2.759100e-01	4.433818e-04	6.901676e-01	-6.897243e-01
0.07875       	6.930722e-01	2.771550e-01	4.517719e-04	6.932981e-01	-6.928463e-01
0.079         	6.969439e-01	2.787033e-01	3.888906e-04	6.971383e-01	-6.967494e-01
0.07925       	7.007144e-01	2.802038e-01	3.242799e-04	7.008765e-01	-7.005522e-01
0.0795        	7.027076e-01	2.810142e-01	2.215221e-04	7.028184e-01	-7.025969e-01
0.07975       	7.053042e-01	2.820505e-01	4.468977e-04	7.055277e-01	-7.050808e-01
0.08          	7.084846e-01	2.833191e-01	4.488003e-04	7.087090e-01	-7.082602e-01
0.08025       	7.119949e-01	2.847190e-01	4.311304e-04	7.122104e-01	-7.117793e-01
0.0805        	7.152265e-01	2.860406e-01	4.470024e-04	7.154500e-01	-7.150030e-01
0.08075       	7.173866e-01	2.868702e-01	4.417893e-04	7.176075e-01	-7.171657e-01
0.081         	7.197141e-01	2.878707e-01	4.923194e-04	7.199603e-01	-7.194680e-01
0.08125       	7.219139e-01	2.886994e-01	3.997417e-04	7.221138e-01	-7.217140e-01
0.0815        	7.257061e-01	2.902120e-01	4.007741e-04	7.259065e-01	-7.255057e-01
0.08175       	7.279267e-01	2.911136e-01	3.804043e-04	7.281169e-01	-7.277365e-01
0.082         	7.313471e-01	2.924960e-01	4.933956e-04	7.315938e-01	-7.311004e-01
0.08225       	7.340063e-01	2.935390e-01	3.977234e-04	7.342052e-01	-7.338075e-01
0.0825        	7.359269e-01	2.943070e-01	4.512607e-04	7.361525e-01	-7.357013e-01
0.08275       	7.390590e-01	2.955457e-01	3.931565e-04	7.392556e-01	-7.388624e-01
0.083         	7.424304e-01	2.968985e-01	4.357338e-04	7.426482e-01	-7.422125e-01
0.08325       	7.458657e-01	2.982653e-01	3.910584e-04	7.460612e-01	-7.456702e-01
0.0835        	7.490733e-01	2.995612e-01	4.555271e-04	7.493011e-01	-7.488456e-01
0.08375       	7.521520e-01	3.007924e-01	4.043368e-04	7.523542e-01	-7.519499e-01
0.084         	7.550308e-01	3.019422e-01	3.780582e-04	7.552198e-01	-7.548418e-01
0.08425       	7.580619e-01	3.031630e-01	4.521124e-04	7.582879e-01	-7.578358e-01
0.0845        	7.610994e-01	3.043208e-01	3.665156e-04	7.612827e-01	-7.609162e-01
0.08475       	7.658440e-01	3.062388e-01	4.047059e-04	7.660463e-01	-7.656416e-01
0.085         	7.686758e-01	3.074422e-01	3.893598e-04	7.688705e-01	-7.684811e-01
0.08525       	7.721130e-01	3.087947e-01	4.025772e-04	7.723143e-01	-7.719117e-01
0.0855        	7.759463e-01	3.103080e-01	3.900462e-04	7.761413e-01	-7.757513e-01
0.08575       	7.788635e-01	3.114610e-01	4.212107e-04	7.790741e-01	-7.786529e-01
0.086         	7.841165e-01	3.135508e-01	3.779913e-04	7.843055e-01	-7.839275e-01
0.08625       	7.895100e-01	3.157482e-01	4.142631e-04	7.897171e-01	-7.893029e-01
0.0865        	7.906631e-01	3.161808e-01	4.438345e-04	7.908850e-01	-7.904412e-01
0.08675       	7.907869e-01	3.162405e-01	4.119997e-04	7.909929e-01	-7.905809e-01
0.087         	7.947010e-01	3.177930e-01	4.079007e-04	7.949050e-01	-7.944971e-01
0.08725       	7.988381e-01	3.194363e-01	3.735699e-04	7.990249e-01	-7.986513e-01
0.0875        	8.006158e-01	3.202530e-01	5.232592e-04	8.008775e-01	-8.003542e-01
0.08775       	8.017204e-01	3.206092e-01	4.231220e-04	8.019320e-01	-8.015089e-01
0.088         	8.049649e-01	3.219100e-01	4.246280e-04	8.051772e-01	-8.047525e-01
0.08825       	8.082583e-01	3.232269e-01	4.211806e-04	8.084689e-01	-8.080477e-01
0.0885        	8.116560e-01	3.245862e-01	4.248989e-04	8.118684e-01	-8.114435e-01
0.08875       	8.151146e-01	3.259672e-01	4.187127e-04	8.153240e-01	-8.149053e-01
0.089         	8.196805e-01	3.277634e-01	4.258752e-04	8.198934e-01	-8.194675e-01
0.08925       	8.214190e-01	3.285638e-01	3.175444e-04	8.215778e-01	-8.212602e-01
0.0895        	8.216572e-01	3.285877e-01	4.291129e-04	8.218717e-01	-8.214426e-01
0.08975       	8.250545e-01	3.299305e-01	4.359135e-04	8.252724e-01	-8.248365e-01
0.09          	8.285779e-01	3.313581e-01	4.408781e-04	8.287983e-01	-8.283575e-01
0.09025       	8.318596e-01	3.326694e-01	4.478364e-04	8.320835e-01	-8.316357e-01
0.0905        	8.351385e-01	3.339763e-01	4.245784e-04	8.353507e-01	-8.349262e-01
0.09075       	8.383816e-01	3.352800e-01	4.184063e-04	8.385908e-01	-8.381724e-01