# Force coefficients
# liftDir     : (0.000000e+00 1.000000e+00 0.000000e+00)
# dragDir     : (1.000000e+00 0.000000e+00 0.000000e+00)
# pitchAxis   : (0.000000e+00 1.000000e+00 0.000000e+00)
# magUInf     : 1.000000e+00
# lRef        : 4.000000e-01
# Aref        : 4.000000e-01
# CofR        : (6.000000e+00 2.000000e+00 0.000000e+00)
# Time        	Cm            	Cd            	Cl            	Cl(f)         	Cl(r)         
0             	0.000000e+00	0.000000e+00	0.000000e+00	0.000000e+00	0.000000e+00
0.001         	6.160563e+02	4.928168e+02	1.584194e+02	6.952660e+02	-5.368466e+02
0.002         	-2.474320e+02	-1.978601e+02	-7.079033e+01	-2.828272e+02	2.120369e+02
0.003         	-6.351578e+01	-5.086459e+01	-4.761286e+00	-6.589643e+01	6.113514e+01
0.004         	5.323768e+00	4.265136e+00	-9.581107e-01	4.844712e+00	-5.802823e+00
0.005         	7.443103e+00	5.993225e+00	7.383648e-01	7.812285e+00	-7.073921e+00
0.006         	5.211288e+00	4.173499e+00	6.397529e-01	5.531164e+00	-4.891411e+00
0.007         	2.837681e+00	2.254003e+00	6.227312e-01	3.149047e+00	-2.526316e+00
0.008         	2.095402e+00	1.671594e+00	5.037827e-01	2.347293e+00	-1.843511e+00
0.009         	1.924321e+00	1.538828e+00	4.717265e-01	2.160184e+00	-1.688457e+00
0.01          	1.867476e+00	1.494588e+00	4.498099e-01	2.092381e+00	-1.642571e+00
0.011         	1.817741e+00	1.454163e+00	4.247766e-01	2.030130e+00	-1.605353e+00
0.012         	1.759233e+00	1.407045e+00	3.856162e-01	1.952041e+00	-1.566425e+00
0.013         	1.687255e+00	1.349423e+00	3.752042e-01	1.874857e+00	-1.499653e+00
0.014         	1.628591e+00	1.302759e+00	3.654608e-01	1.811321e+00	-1.445861e+00
0.015         	1.581698e+00	1.265265e+00	3.501053e-01	1.756751e+00	-1.406645e+00
0.016         	1.535450e+00	1.228313e+00	3.332502e-01	1.702075e+00	-1.368825e+00
0.017         	1.491455e+00	1.193087e+00	3.202306e-01	1.651570e+00	-1.331339e+00
0.018         	1.449423e+00	1.159526e+00	3.104608e-01	1.604654e+00	-1.294193e+00
0.019         	1.412540e+00	1.129881e+00	3.047087e-01	1.564894e+00	-1.260185e+00
0.02          	1.384784e+00	1.107752e+00	3.022614e-01	1.535915e+00	-1.233653e+00
0.021         	1.367654e+00	1.093976e+00	2.991841e-01	1.517246e+00	-1.218061e+00
0.022         	1.353636e+00	1.082766e+00	2.949369e-01	1.501105e+00	-1.206168e+00
0.023         	1.337394e+00	1.069799e+00	2.891710e-01	1.481980e+00	-1.192809e+00
0.024         	1.305074e+00	1.043954e+00	2.821657e-01	1.446157e+00	-1.163991e+00
0.025         	1.272474e+00	1.017891e+00	2.774162e-01	1.411182e+00	-1.133766e+00
0.026         	1.241813e+00	9.933833e-01	2.725808e-01	1.378103e+00	-1.105522e+00
0.027         	1.214304e+00	9.713798e-01	2.682835e-01	1.348445e+00	-1.080162e+00
0.028         	1.189636e+00	9.516544e-01	2.638615e-01	1.321566e+00	-1.057705e+00
0.029         	1.168592e+00	9.347937e-01	2.594245e-01	1.298304e+00	-1.038880e+00
0.03          	1.148921e+00	9.190640e-01	2.547449e-01	1.276294e+00	-1.021549e+00
0.031         	1.131403e+00	9.050659e-01	2.506145e-01	1.256710e+00	-1.006096e+00
0.032         	1.114344e+00	8.914082e-01	2.464993e-01	1.237594e+00	-9.910946e-01
0.033         	1.099161e+00	8.792901e-01	2.430282e-01	1.220675e+00	-9.776473e-01
0.034         	1.083805e+00	8.669783e-01	2.396731e-01	1.203642e+00	-9.639687e-01
0.035         	1.070033e+00	8.559886e-01	2.370083e-01	1.188537e+00	-9.515284e-01
0.036         	1.055614e+00	8.444221e-01	2.343614e-01	1.172795e+00	-9.384335e-01
0.037         	1.042683e+00	8.341016e-01	2.321503e-01	1.158758e+00	-9.266078e-01
0.038         	1.029283e+00	8.233663e-01	2.296936e-01	1.144129e+00	-9.144358e-01
0.039         	1.017495e+00	8.139592e-01	2.274025e-01	1.131197e+00	-9.037941e-01
0.04          	1.005311e+00	8.041882e-01	2.248680e-01	1.117745e+00	-8.928769e-01
0.041         	9.946031e-01	7.956494e-01	2.224996e-01	1.105853e+00	-8.833533e-01
0.042         	9.833852e-01	7.866509e-01	2.201378e-01	1.093454e+00	-8.733163e-01
0.043         	9.734380e-01	7.787178e-01	2.181591e-01	1.082518e+00	-8.643585e-01
0.044         	9.630737e-01	7.704028e-01	2.160905e-01	1.071119e+00	-8.550284e-01
0.045         	9.539171e-01	7.631009e-01	2.142799e-01	1.061057e+00	-8.467772e-01
0.046         	9.443377e-01	7.554164e-01	2.123539e-01	1.050515e+00	-8.381607e-01
0.047         	9.358684e-01	7.486659e-01	2.106540e-01	1.041195e+00	-8.305414e-01
0.048         	9.269317e-01	7.414980e-01	2.088196e-01	1.031342e+00	-8.225219e-01
0.049         	9.190515e-01	7.352171e-01	2.071361e-01	1.022620e+00	-8.154835e-01
0.05          	9.105319e-01	7.283829e-01	2.055529e-01	1.013308e+00	-8.077555e-01
0.051         	9.032184e-01	7.225530e-01	2.040340e-01	1.005235e+00	-8.012014e-01
0.052         	8.953264e-01	7.162129e-01	2.024445e-01	9.965487e-01	-7.941041e-01
0.053         	8.881801e-01	7.105250e-01	2.012006e-01	9.887805e-01	-7.875798e-01
0.054         	8.808515e-01	7.046427e-01	1.995373e-01	9.806202e-01	-7.810828e-01
0.055         	8.743440e-01	6.994553e-01	1.981160e-01	9.734021e-01	-7.752860e-01
0.056         	8.673208e-01	6.938191e-01	1.967244e-01	9.656830e-01	-7.689586e-01
0.057         	8.611812e-01	6.889285e-01	1.955055e-01	9.589339e-01	-7.634284e-01
0.058         	8.546149e-01	6.836563e-01	1.941308e-01	9.516803e-01	-7.575495e-01
0.059         	8.488246e-01	6.790445e-01	1.929200e-01	9.452846e-01	-7.523646e-01
0.06          	8.426728e-01	6.741033e-01	1.916222e-01	9.384839e-01	-7.468617e-01
0.061         	8.373045e-01	6.698288e-01	1.904863e-01	9.325476e-01	-7.420613e-01
0.062         	8.314391e-01	6.651184e-01	1.892594e-01	9.260688e-01	-7.368094e-01
0.063         	8.263214e-01	6.610432e-01	1.882007e-01	9.204218e-01	-7.322211e-01
0.064         	8.207436e-01	6.565636e-01	1.870374e-01	9.142623e-01	-7.272249e-01
0.065         	8.158570e-01	6.526728e-01	1.860202e-01	9.088671e-01	-7.228469e-01
0.066         	8.105683e-01	6.484250e-01	1.848986e-01	9.030176e-01	-7.181190e-01
0.067         	8.059211e-01	6.447239e-01	1.839562e-01	8.978992e-01	-7.139430e-01
0.068         	8.008879e-01	6.406817e-01	1.829396e-01	8.923577e-01	-7.094181e-01
0.069         	7.964894e-01	6.371788e-01	1.820336e-01	8.875062e-01	-7.054726e-01
0.07          	7.916996e-01	6.333328e-01	1.810673e-01	8.822332e-01	-7.011660e-01
0.071         	7.874532e-01	6.299527e-01	1.802864e-01	8.775965e-01	-6.973100e-01
0.072         	7.829670e-01	6.263502e-01	1.793325e-01	8.726332e-01	-6.933007e-01
0.073         	7.789187e-01	6.231268e-01	1.785747e-01	8.682061e-01	-6.896314e-01
0.074         	7.746284e-01	6.196790e-01	1.776059e-01	8.634314e-01	-6.858255e-01
0.075         	7.707825e-01	6.166144e-01	1.767857e-01	8.591754e-01	-6.823897e-01
0.076         	7.665894e-01	6.132489e-01	1.760290e-01	8.546039e-01	-6.785749e-01
0.077         	7.628898e-01	6.102995e-01	1.751884e-01	8.504840e-01	-6.752956e-01
0.078         	7.590252e-01	6.071975e-01	1.743116e-01	8.461809e-01	-6.718694e-01
0.079         	7.554106e-01	6.043157e-01	1.735714e-01	8.421963e-01	-6.686249e-01
0.08          	7.516133e-01	6.012719e-01	1.730076e-01	8.381171e-01	-6.651094e-01
0.081         	7.482096e-01	5.985498e-01	1.721084e-01	8.342638e-01	-6.621554e-01
0.082         	7.447823e-01	5.958090e-01	1.712858e-01	8.304252e-01	-6.591394e-01
0.083         	7.413873e-01	5.930906e-01	1.705982e-01	8.266864e-01	-6.560882e-01
0.084         	7.380358e-01	5.904091e-01	1.698894e-01	8.229805e-01	-6.530911e-01
0.085         	7.347725e-01	5.878000e-01	1.691679e-01	8.193564e-01	-6.501886e-01
0.086         	7.315681e-01	5.852380e-01	1.684953e-01	8.158158e-01	-6.473205e-01
0.087         	7.284173e-01	5.827166e-01	1.678538e-01	8.123442e-01	-6.444904e-01
0.088         	7.253837e-01	5.802899e-01	1.671814e-01	8.089744e-01	-6.417930e-01
0.089         	7.223989e-01	5.779025e-01	1.665430e-01	8.056705e-01	-6.391274e-01
0.09          	7.194597e-01	5.755515e-01	1.659191e-01	8.024192e-01	-6.365001e-01
0.091         	7.165806e-01	5.732484e-01	1.653078e-01	7.992345e-01	-6.339267e-01
0.092         	7.137444e-01	5.709796e-01	1.647003e-01	7.960946e-01	-6.313943e-01
0.093         	7.109677e-01	5.687587e-01	1.640916e-01	7.930135e-01	-6.289219e-01
0.094         	7.082359e-01	5.665735e-01	1.635066e-01	7.899893e-01	-6.264826e-01
0.095         	7.055500e-01	5.644249e-01	1.629468e-01	7.870234e-01	-6.240766e-01
0.096         	7.029139e-01	5.623159e-01	1.624039e-01	7.841158e-01	-6.217119e-01
0.097         	7.003203e-01	5.602404e-01	1.618409e-01	7.812408e-01	-6.193998e-01
0.098         	6.977867e-01	5.582127e-01	1.612921e-01	7.784327e-01	-6.171407e-01
0.099         	6.952754e-01	5.562035e-01	1.607512e-01	7.756510e-01	-6.148998e-01
0.1           	6.928192e-01	5.542373e-01	1.602122e-01	7.729253e-01	-6.127132e-01
0.101         	6.904066e-01	5.523069e-01	1.596803e-01	7.702467e-01	-6.105664e-01
0.102         	6.880386e-01	5.504124e-01	1.591070e-01	7.675921e-01	-6.084851e-01
0.103         	6.857167e-01	5.485549e-01	1.585592e-01	7.649963e-01	-6.064371e-01
0.104         	6.834315e-01	5.467261e-01	1.580191e-01	7.624410e-01	-6.044219e-01
0.105         	6.811887e-01	5.449313e-01	1.574906e-01	7.599339e-01	-6.024434e-01
0.106         	6.789859e-01	5.431694e-01	1.569765e-01	7.574742e-01	-6.004976e-01
0.107         	6.768585e-01	5.414678e-01	1.564852e-01	7.551011e-01	-5.986159e-01
0.108         	6.747638e-01	5.397922e-01	1.559934e-01	7.527605e-01	-5.967672e-01
0.109         	6.727005e-01	5.381414e-01	1.555288e-01	7.504649e-01	-5.949361e-01
0.11          	6.706687e-01	5.365159e-01	1.550730e-01	7.482052e-01	-5.931322e-01
0.111         	6.686675e-01	5.349144e-01	1.546286e-01	7.459818e-01	-5.913533e-01
0.112         	6.666761e-01	5.333203e-01	1.541810e-01	7.437666e-01	-5.895856e-01
0.113         	6.647172e-01	5.317529e-01	1.537398e-01	7.415871e-01	-5.878473e-01
0.114         	6.627782e-01	5.302018e-01	1.533047e-01	7.394305e-01	-5.861258e-01
0.115         	6.608905e-01	5.286919e-01	1.528756e-01	7.373283e-01	-5.844527e-01
0.116         	6.590756e-01	5.272421e-01	1.524478e-01	7.352995e-01	-5.828517e-01
0.117         	6.573612e-01	5.258707e-01	1.519740e-01	7.333482e-01	-5.813743e-01
0.118         	6.556417e-01	5.244960e-01	1.515670e-01	7.314252e-01	-5.798582e-01
0.119         	6.539559e-01	5.231478e-01	1.511540e-01	7.295329e-01	-5.783789e-01
0.12          	6.523306e-01	5.218506e-01	1.507523e-01	7.277068e-01	-5.769545e-01
0.121         	6.507235e-01	5.205638e-01	1.503387e-01	7.258928e-01	-5.755541e-01
0.122         	6.490920e-01	5.192582e-01	1.499566e-01	7.240703e-01	-5.741137e-01
0.123         	6.474763e-01	5.179663e-01	1.495649e-01	7.222588e-01	-5.726939e-01
0.124         	6.458798e-01	5.166911e-01	1.491967e-01	7.204781e-01	-5.712814e-01
0.125         	6.443055e-01	5.154304e-01	1.488125e-01	7.187117e-01	-5.698992e-01
0.126         	6.427371e-01	5.141779e-01	1.484706e-01	7.169724e-01	-5.685018e-01
0.127         	6.411963e-01	5.129443e-01	1.480928e-01	7.152427e-01	-5.671499e-01
0.128         	6.396721e-01	5.117254e-01	1.477275e-01	7.135359e-01	-5.658084e-01
0.129         	6.381761e-01	5.105290e-01	1.473603e-01	7.118563e-01	-5.644959e-01
0.13          	6.367024e-01	5.093504e-01	1.469994e-01	7.102022e-01	-5.632027e-01
0.131         	6.352634e-01	5.081990e-01	1.466439e-01	7.085853e-01	-5.619415e-01
0.132         	6.338543e-01	5.070718e-01	1.463009e-01	7.070048e-01	-5.607038e-01
0.133         	6.324738e-01	5.059674e-01	1.459614e-01	7.054545e-01	-5.594931e-01
0.134         	6.311133e-01	5.048791e-01	1.456309e-01	7.039288e-01	-5.582979e-01
0.135         	6.297768e-01	5.038097e-01	1.453013e-01	7.024274e-01	-5.571261e-01
0.136         	6.284562e-01	5.027534e-01	1.449791e-01	7.009458e-01	-5.559667e-01
0.137         	6.271521e-01	5.017099e-01	1.446550e-01	6.994796e-01	-5.548246e-01
0.138         	6.258582e-01	5.006753e-01	1.443399e-01	6.980281e-01	-5.536883e-01
0.139         	6.245801e-01	4.996523e-01	1.440183e-01	6.965892e-01	-5.525710e-01
0.14          	6.233126e-01	4.986376e-01	1.437189e-01	6.951721e-01	-5.514532e-01
0.141         	6.220681e-01	4.976429e-01	1.434032e-01	6.937696e-01	-5.503665e-01
0.142         	6.208173e-01	4.966430e-01	1.431264e-01	6.923805e-01	-5.492541e-01
0.143         	6.195980e-01	4.956662e-01	1.428374e-01	6.910168e-01	-5.481793e-01
0.144         	6.183998e-01	4.947080e-01	1.425082e-01	6.896539e-01	-5.471458e-01
0.145         	6.172203e-01	4.937653e-01	1.422182e-01	6.883294e-01	-5.461113e-01
0.146         	6.160414e-01	4.928215e-01	1.419311e-01	6.870069e-01	-5.450759e-01
0.147         	6.149138e-01	4.919200e-01	1.416526e-01	6.857401e-01	-5.440875e-01
0.148         	6.137535e-01	4.909914e-01	1.413803e-01	6.844437e-01	-5.430634e-01
0.149         	6.126657e-01	4.901224e-01	1.411400e-01	6.832357e-01	-5.420957e-01
0.15          	6.115223e-01	4.892062e-01	1.408109e-01	6.819277e-01	-5.411168e-01
0.151         	6.104962e-01	4.883870e-01	1.405512e-01	6.807718e-01	-5.402206e-01
0.152         	6.093215e-01	4.874465e-01	1.402717e-01	6.794573e-01	-5.391856e-01
0.153         	6.084086e-01	4.867185e-01	1.400379e-01	6.784276e-01	-5.383896e-01
0.154         	6.071949e-01	4.857430e-01	1.397454e-01	6.770675e-01	-5.373222e-01
0.155         	6.063776e-01	4.850943e-01	1.395201e-01	6.761376e-01	-5.366176e-01
0.156         	6.050820e-01	4.840551e-01	1.392146e-01	6.746893e-01	-5.354747e-01
0.157         	6.043864e-01	4.834981e-01	1.390149e-01	6.738938e-01	-5.348789e-01
0.158         	6.030821e-01	4.824559e-01	1.387003e-01	6.724323e-01	-5.337320e-01
0.159         	6.023830e-01	4.818967e-01	1.385027e-01	6.716344e-01	-5.331317e-01
0.16          	6.011126e-01	4.808798e-01	1.382200e-01	6.702227e-01	-5.320026e-01
0.161         	6.004594e-01	4.803577e-01	1.380104e-01	6.694646e-01	-5.314542e-01
0.162         	5.992438e-01	4.793851e-01	1.377472e-01	6.681174e-01	-5.303703e-01
0.163         	5.985951e-01	4.788665e-01	1.375449e-01	6.673676e-01	-5.298226e-01
0.164         	5.973938e-01	4.779052e-01	1.372390e-01	6.660134e-01	-5.287743e-01
0.165         	5.967551e-01	4.773946e-01	1.370642e-01	6.652872e-01	-5.282230e-01
0.166         	5.955786e-01	4.764532e-01	1.367998e-01	6.639786e-01	-5.271787e-01
0.167         	5.949635e-01	4.759615e-01	1.366040e-01	6.632654e-01	-5.266615e-01
0.168         	5.938094e-01	4.750378e-01	1.363303e-01	6.619746e-01	-5.256442e-01
0.169         	5.932089e-01	4.745580e-01	1.361546e-01	6.612862e-01	-5.251316e-01
0.17          	5.920741e-01	4.736499e-01	1.358913e-01	6.600197e-01	-5.241284e-01
0.171         	5.914877e-01	4.731813e-01	1.357199e-01	6.593476e-01	-5.236277e-01
0.172         	5.903846e-01	4.722992e-01	1.354644e-01	6.581167e-01	-5.226524e-01
0.173         	5.898234e-01	4.718506e-01	1.352952e-01	6.574710e-01	-5.221758e-01
0.174         	5.887459e-01	4.709883e-01	1.350504e-01	6.562711e-01	-5.212207e-01
0.175         	5.881954e-01	4.705485e-01	1.348740e-01	6.556324e-01	-5.207584e-01
0.176         	5.871385e-01	4.697027e-01	1.346503e-01	6.544637e-01	-5.198134e-01
0.177         	5.866053e-01	4.692767e-01	1.344689e-01	6.538397e-01	-5.193708e-01
0.178         	5.855693e-01	4.684476e-01	1.342509e-01	6.526947e-01	-5.184438e-01
0.179         	5.850471e-01	4.680300e-01	1.340826e-01	6.520884e-01	-5.180058e-01
0.18          	5.840374e-01	4.672223e-01	1.338400e-01	6.509574e-01	-5.171174e-01
0.181         	5.835236e-01	4.668113e-01	1.336885e-01	6.503678e-01	-5.166794e-01
0.182         	5.825358e-01	4.660210e-01	1.334554e-01	6.492635e-01	-5.158081e-01
0.183         	5.820323e-01	4.656184e-01	1.333055e-01	6.486851e-01	-5.153796e-01
0.184         	5.810673e-01	4.648462e-01	1.330780e-01	6.476062e-01	-5.145283e-01
0.185         	5.805702e-01	4.644487e-01	1.329371e-01	6.470388e-01	-5.141017e-01
0.186         	5.796225e-01	4.636905e-01	1.327287e-01	6.459869e-01	-5.132582e-01
0.187         	5.791435e-01	4.633075e-01	1.325641e-01	6.454256e-01	-5.128615e-01
0.188         	5.782273e-01	4.625735e-01	1.323188e-01	6.443867e-01	-5.120679e-01
0.189         	5.777525e-01	4.621946e-01	1.321713e-01	6.438382e-01	-5.116669e-01
0.19          	5.768576e-01	4.614789e-01	1.319717e-01	6.428434e-01	-5.108717e-01
0.191         	5.763877e-01	4.611030e-01	1.318418e-01	6.423085e-01	-5.104668e-01
0.192         	5.755160e-01	4.604060e-01	1.316352e-01	6.413335e-01	-5.096984e-01
0.193         	5.750535e-01	4.600354e-01	1.315028e-01	6.408048e-01	-5.093021e-01
0.194         	5.742061e-01	4.593583e-01	1.312998e-01	6.398560e-01	-5.085562e-01
0.195         	5.737492e-01	4.589924e-01	1.311737e-01	6.393361e-01	-5.081624e-01
0.196         	5.729321e-01	4.583392e-01	1.309666e-01	6.384154e-01	-5.074488e-01
0.197         	5.724777e-01	4.579754e-01	1.308424e-01	6.378990e-01	-5.070565e-01
0.198         	5.716781e-01	4.573360e-01	1.306460e-01	6.370011e-01	-5.063551e-01
0.199         	5.712316e-01	4.569784e-01	1.305244e-01	6.364938e-01	-5.059694e-01
0.2           	5.704493e-01	4.563530e-01	1.303311e-01	6.356148e-01	-5.052837e-01
0.201         	5.700097e-01	4.560011e-01	1.302122e-01	6.351158e-01	-5.049036e-01
0.202         	5.692426e-01	4.553878e-01	1.300438e-01	6.342645e-01	-5.042207e-01
0.203         	5.688110e-01	4.550421e-01	1.299286e-01	6.337753e-01	-5.038467e-01
0.204         	5.680675e-01	4.544478e-01	1.297291e-01	6.329321e-01	-5.032030e-01
0.205         	5.676332e-01	4.540998e-01	1.296247e-01	6.324456e-01	-5.028208e-01
0.206         	5.669138e-01	4.535250e-01	1.294164e-01	6.316220e-01	-5.022056e-01
0.207         	5.665063e-01	4.531973e-01	1.292883e-01	6.311505e-01	-5.018622e-01
0.208         	5.657945e-01	4.526316e-01	1.290789e-01	6.303339e-01	-5.012550e-01
0.209         	5.654034e-01	4.523138e-01	1.289892e-01	6.298980e-01	-5.009088e-01
0.21          	5.646476e-01	4.517142e-01	1.288280e-01	6.290616e-01	-5.002336e-01
0.211         	5.643248e-01	4.514516e-01	1.286654e-01	6.286575e-01	-4.999921e-01
0.212         	5.635432e-01	4.508303e-01	1.284442e-01	6.277653e-01	-4.993211e-01
0.213         	5.632619e-01	4.506015e-01	1.283803e-01	6.274521e-01	-4.990718e-01
0.214         	5.624697e-01	4.499706e-01	1.282116e-01	6.265755e-01	-4.983639e-01
0.215         	5.622273e-01	4.497737e-01	1.281217e-01	6.262881e-01	-4.981664e-01
0.216         	5.614117e-01	4.491250e-01	1.279336e-01	6.253786e-01	-4.974449e-01
0.217         	5.611611e-01	4.489218e-01	1.278726e-01	6.250974e-01	-4.972249e-01
0.218         	5.603782e-01	4.482975e-01	1.276800e-01	6.242182e-01	-4.965382e-01
0.219         	5.601734e-01	4.481317e-01	1.276123e-01	6.239796e-01	-4.963673e-01
0.22          	5.593837e-01	4.475022e-01	1.273628e-01	6.230651e-01	-4.957023e-01
0.221         	5.591780e-01	4.473355e-01	1.272714e-01	6.228137e-01	-4.955423e-01
0.222         	5.583863e-01	4.467039e-01	1.271005e-01	6.219366e-01	-4.948361e-01
0.223         	5.581878e-01	4.465432e-01	1.270271e-01	6.217014e-01	-4.946743e-01
0.224         	5.573962e-01	4.459120e-01	1.268403e-01	6.208163e-01	-4.939760e-01
0.225         	5.571984e-01	4.457514e-01	1.267616e-01	6.205792e-01	-4.938176e-01
0.226         	5.564196e-01	4.451306e-01	1.265840e-01	6.197116e-01	-4.931276e-01
0.227         	5.562317e-01	4.449783e-01	1.265107e-01	6.194871e-01	-4.929764e-01
0.228         	5.554695e-01	4.443706e-01	1.263361e-01	6.186375e-01	-4.923014e-01
0.229         	5.552944e-01	4.442286e-01	1.262633e-01	6.184260e-01	-4.921627e-01
0.23          	5.545452e-01	4.436316e-01	1.260912e-01	6.175908e-01	-4.914997e-01
0.231         	5.543836e-01	4.434999e-01	1.260195e-01	6.173934e-01	-4.913739e-01
0.232         	5.536456e-01	4.429119e-01	1.258531e-01	6.165722e-01	-4.907191e-01
0.233         	5.534975e-01	4.427912e-01	1.257815e-01	6.163882e-01	-4.906068e-01
0.234         	5.527735e-01	4.422143e-01	1.256196e-01	6.155832e-01	-4.899637e-01
0.235         	5.526304e-01	4.420977e-01	1.255504e-01	6.154056e-01	-4.898552e-01
0.236         	5.519238e-01	4.415341e-01	1.253939e-01	6.146207e-01	-4.892269e-01
0.237         	5.517791e-01	4.414176e-01	1.253240e-01	6.144411e-01	-4.891171e-01
0.238         	5.510979e-01	4.408733e-01	1.251710e-01	6.136834e-01	-4.885124e-01
0.239         	5.509366e-01	4.407434e-01	1.251314e-01	6.135024e-01	-4.883709e-01
0.24          	5.502993e-01	4.402351e-01	1.249638e-01	6.127812e-01	-4.878174e-01
0.241         	5.501221e-01	4.400919e-01	1.248846e-01	6.125644e-01	-4.876797e-01
0.242         	5.495010e-01	4.395962e-01	1.247410e-01	6.118715e-01	-4.871305e-01
0.243         	5.493246e-01	4.394541e-01	1.246747e-01	6.116620e-01	-4.869873e-01
0.244         	5.487268e-01	4.389766e-01	1.245313e-01	6.109925e-01	-4.864612e-01
0.245         	5.485340e-01	4.388218e-01	1.244597e-01	6.107639e-01	-4.863042e-01
0.246         	5.479680e-01	4.383697e-01	1.243267e-01	6.101313e-01	-4.858046e-01
0.247         	5.477657e-01	4.382063e-01	1.242543e-01	6.098928e-01	-4.856385e-01
0.248         	5.472106e-01	4.377654e-01	1.241304e-01	6.092759e-01	-4.851454e-01
0.249         	5.470230e-01	4.376109e-01	1.240634e-01	6.090547e-01	-4.849913e-01
0.25          	5.464683e-01	4.371724e-01	1.239308e-01	6.084337e-01	-4.845029e-01
0.251         	5.463041e-01	4.370355e-01	1.238675e-01	6.082378e-01	-4.843703e-01
0.252         	5.457317e-01	4.365839e-01	1.237426e-01	6.076030e-01	-4.838604e-01
0.253         	5.455820e-01	4.364579e-01	1.236748e-01	6.074194e-01	-4.837446e-01
0.254         	5.450288e-01	4.360211e-01	1.235559e-01	6.068068e-01	-4.832508e-01
0.255         	5.448851e-01	4.359003e-01	1.234852e-01	6.066277e-01	-4.831425e-01
0.256         	5.443407e-01	4.354702e-01	1.233777e-01	6.060295e-01	-4.826518e-01
0.257         	5.441976e-01	4.353511e-01	1.233102e-01	6.058527e-01	-4.825425e-01
0.258         	5.436611e-01	4.349260e-01	1.231876e-01	6.052549e-01	-4.820673e-01
0.259         	5.435511e-01	4.348346e-01	1.231103e-01	6.051062e-01	-4.819960e-01
0.26          	5.429941e-01	4.343919e-01	1.230111e-01	6.044996e-01	-4.814885e-01
0.261         	5.428964e-01	4.343108e-01	1.229382e-01	6.043655e-01	-4.814272e-01
0.262         	5.423365e-01	4.338661e-01	1.228478e-01	6.037604e-01	-4.809126e-01
0.263         	5.422520e-01	4.337955e-01	1.227640e-01	6.036340e-01	-4.808700e-01
0.264         	5.417081e-01	4.333631e-01	1.226760e-01	6.030461e-01	-4.803701e-01
0.265         	5.416277e-01	4.332962e-01	1.225832e-01	6.029193e-01	-4.803361e-01
0.266         	5.410847e-01	4.328645e-01	1.225100e-01	6.023397e-01	-4.798297e-01
0.267         	5.409970e-01	4.327916e-01	1.224175e-01	6.022057e-01	-4.797882e-01
0.268         	5.404750e-01	4.323769e-01	1.223442e-01	6.016471e-01	-4.793029e-01
0.269         	5.403936e-01	4.323090e-01	1.222550e-01	6.015211e-01	-4.792661e-01
0.27          	5.398723e-01	4.318949e-01	1.221739e-01	6.009593e-01	-4.787853e-01
0.271         	5.397914e-01	4.318270e-01	1.221021e-01	6.008424e-01	-4.787404e-01
0.272         	5.393005e-01	4.314380e-01	1.220086e-01	6.003048e-01	-4.782961e-01
0.273         	5.391750e-01	4.313336e-01	1.219622e-01	6.001561e-01	-4.781938e-01
0.274         	5.387445e-01	4.309935e-01	1.218515e-01	5.996702e-01	-4.778187e-01
0.275         	5.385959e-01	4.308703e-01	1.218045e-01	5.994982e-01	-4.776937e-01
0.276         	5.381616e-01	4.305272e-01	1.217026e-01	5.990129e-01	-4.773102e-01
0.277         	5.380275e-01	4.304145e-01	1.216818e-01	5.988684e-01	-4.771866e-01
0.278         	5.376273e-01	4.301009e-01	1.215376e-01	5.983961e-01	-4.768585e-01
0.279         	5.375255e-01	4.300140e-01	1.214979e-01	5.982744e-01	-4.767765e-01
0.28          	5.370619e-01	4.296469e-01	1.213997e-01	5.977618e-01	-4.763621e-01
0.281         	5.370163e-01	4.296071e-01	1.213446e-01	5.976886e-01	-4.763440e-01
0.282         	5.365021e-01	4.291988e-01	1.212487e-01	5.971265e-01	-4.758778e-01
0.283         	5.365126e-01	4.292044e-01	1.212094e-01	5.971173e-01	-4.759079e-01
0.284         	5.359583e-01	4.287640e-01	1.211093e-01	5.965129e-01	-4.754036e-01
0.285         	5.360103e-01	4.288028e-01	1.210684e-01	5.965445e-01	-4.754761e-01
0.286         	5.354518e-01	4.283588e-01	1.209659e-01	5.959347e-01	-4.749688e-01
0.287         	5.355104e-01	4.284028e-01	1.209324e-01	5.959766e-01	-4.750442e-01
0.288         	5.349382e-01	4.279485e-01	1.208155e-01	5.953459e-01	-4.745305e-01
0.289         	5.350333e-01	4.280201e-01	1.208059e-01	5.954362e-01	-4.746303e-01
0.29          	5.344347e-01	4.275466e-01	1.206530e-01	5.947612e-01	-4.741082e-01
0.291         	5.345231e-01	4.276103e-01	1.206937e-01	5.948699e-01	-4.741763e-01
0.292         	5.339969e-01	4.271969e-01	1.204815e-01	5.942376e-01	-4.737561e-01
0.293         	5.340331e-01	4.272218e-01	1.206294e-01	5.943478e-01	-4.737184e-01
0.294         	5.335423e-01	4.268300e-01	1.203032e-01	5.936939e-01	-4.733907e-01
0.295         	5.335403e-01	4.268278e-01	1.204604e-01	5.937705e-01	-4.733101e-01
0.296         	5.331196e-01	4.264918e-01	1.202237e-01	5.932315e-01	-4.730077e-01
0.297         	5.330827e-01	4.264621e-01	1.202988e-01	5.932321e-01	-4.729333e-01
0.298         	5.326720e-01	4.261344e-01	1.201379e-01	5.927409e-01	-4.726030e-01
0.299         	5.326383e-01	4.261069e-01	1.201700e-01	5.927233e-01	-4.725533e-01
0.3           	5.322476e-01	4.257947e-01	1.200006e-01	5.922479e-01	-4.722473e-01
0.301         	5.321981e-01	4.257543e-01	1.200711e-01	5.922336e-01	-4.721625e-01
0.302         	5.318485e-01	4.254753e-01	1.198589e-01	5.917780e-01	-4.719190e-01
0.303         	5.317633e-01	4.254076e-01	1.200330e-01	5.917798e-01	-4.717468e-01
0.304         	5.315096e-01	4.252029e-01	1.196621e-01	5.913407e-01	-4.716786e-01
0.305         	5.312673e-01	4.250119e-01	1.199904e-01	5.912625e-01	-4.712721e-01
0.306         	5.311680e-01	4.249289e-01	1.195183e-01	5.909272e-01	-4.714089e-01
0.307         	5.308703e-01	4.246945e-01	1.198623e-01	5.908014e-01	-4.709391e-01
0.308         	5.307546e-01	4.245982e-01	1.194442e-01	5.904767e-01	-4.710325e-01
0.309         	5.305018e-01	4.243998e-01	1.196805e-01	5.903421e-01	-4.706616e-01
0.31          	5.303482e-01	4.242740e-01	1.194077e-01	5.900521e-01	-4.706444e-01
0.311         	5.301667e-01	4.241295e-01	1.194854e-01	5.899094e-01	-4.704240e-01
0.312         	5.298827e-01	4.239043e-01	1.193806e-01	5.895730e-01	-4.701924e-01
0.313         	5.298695e-01	4.238898e-01	1.193345e-01	5.895367e-01	-4.702022e-01
0.314         	5.295087e-01	4.236056e-01	1.192855e-01	5.891514e-01	-4.698660e-01
0.315         	5.294781e-01	4.235774e-01	1.192257e-01	5.890909e-01	-4.698652e-01
0.316         	5.291870e-01	4.233468e-01	1.191755e-01	5.887748e-01	-4.695993e-01
0.317         	5.290723e-01	4.232544e-01	1.191238e-01	5.886342e-01	-4.695104e-01
0.318         	5.288710e-01	4.230933e-01	1.190725e-01	5.884072e-01	-4.693347e-01
0.319         	5.287036e-01	4.229597e-01	1.190201e-01	5.882137e-01	-4.691935e-01
0.32          	5.285254e-01	4.228169e-01	1.189721e-01	5.880114e-01	-4.690393e-01
0.321         	5.283641e-01	4.226878e-01	1.189234e-01	5.878258e-01	-4.689024e-01
0.322         	5.281858e-01	4.225455e-01	1.188785e-01	5.876251e-01	-4.687466e-01
0.323         	5.280305e-01	4.224209e-01	1.188294e-01	5.874452e-01	-4.686158e-01
0.324         	5.278519e-01	4.222781e-01	1.187998e-01	5.872518e-01	-4.684520e-01
0.325         	5.276965e-01	4.221539e-01	1.187451e-01	5.870690e-01	-4.683239e-01
0.326         	5.275502e-01	4.220370e-01	1.186896e-01	5.868950e-01	-4.682054e-01
0.327         	5.273694e-01	4.218923e-01	1.186436e-01	5.866912e-01	-4.680476e-01
0.328         	5.272661e-01	4.218096e-01	1.186000e-01	5.865661e-01	-4.679661e-01
0.329         	5.270094e-01	4.216046e-01	1.185559e-01	5.862874e-01	-4.677315e-01
0.33          	5.270160e-01	4.216091e-01	1.185028e-01	5.862674e-01	-4.677646e-01
0.331         	5.266566e-01	4.213229e-01	1.184696e-01	5.858914e-01	-4.674218e-01
0.332         	5.267190e-01	4.213712e-01	1.184048e-01	5.859214e-01	-4.675166e-01
0.333         	5.263736e-01	4.210967e-01	1.183785e-01	5.855628e-01	-4.671843e-01
0.334         	5.264137e-01	4.211271e-01	1.183166e-01	5.855720e-01	-4.672554e-01
0.335         	5.260800e-01	4.208618e-01	1.182969e-01	5.852284e-01	-4.669315e-01
0.336         	5.261290e-01	4.208993e-01	1.182403e-01	5.852491e-01	-4.670088e-01
0.337         	5.257905e-01	4.206302e-01	1.182194e-01	5.849002e-01	-4.666808e-01
0.338         	5.258565e-01	4.206811e-01	1.181584e-01	5.849357e-01	-4.667773e-01
0.339         	5.255355e-01	4.204263e-01	1.181438e-01	5.846074e-01	-4.664636e-01
0.34          	5.255684e-01	4.204508e-01	1.180717e-01	5.846042e-01	-4.665325e-01
0.341         	5.252845e-01	4.202256e-01	1.180507e-01	5.843098e-01	-4.662591e-01
0.342         	5.253003e-01	4.202365e-01	1.180006e-01	5.843007e-01	-4.663000e-01
0.343         	5.250490e-01	4.200371e-01	1.179649e-01	5.840314e-01	-4.660665e-01
0.344         	5.250300e-01	4.200202e-01	1.179204e-01	5.839902e-01	-4.660698e-01
0.345         	5.248122e-01	4.198475e-01	1.178846e-01	5.837545e-01	-4.658699e-01
0.346         	5.247478e-01	4.197949e-01	1.178563e-01	5.836760e-01	-4.658196e-01
0.347         	5.245852e-01	4.196660e-01	1.178219e-01	5.834962e-01	-4.656742e-01
0.348         	5.245203e-01	4.196131e-01	1.177605e-01	5.834006e-01	-4.656401e-01
0.349         	5.243901e-01	4.195096e-01	1.177331e-01	5.832567e-01	-4.655236e-01
0.35          	5.242793e-01	4.194203e-01	1.176945e-01	5.831265e-01	-4.654321e-01
0.351         	5.241537e-01	4.193204e-01	1.176571e-01	5.829823e-01	-4.653251e-01
0.352         	5.240368e-01	4.192261e-01	1.176180e-01	5.828457e-01	-4.652278e-01
0.353         	5.239403e-01	4.191503e-01	1.175722e-01	5.827264e-01	-4.651542e-01
0.354         	5.238265e-01	4.190580e-01	1.175459e-01	5.825995e-01	-4.650535e-01
0.355         	5.237359e-01	4.189862e-01	1.175066e-01	5.824892e-01	-4.649826e-01
0.356         	5.236223e-01	4.188954e-01	1.174843e-01	5.823645e-01	-4.648802e-01
0.357         	5.235137e-01	4.188083e-01	1.174483e-01	5.822379e-01	-4.647896e-01
0.358         	5.234188e-01	4.187322e-01	1.174214e-01	5.821295e-01	-4.647081e-01
0.359         	5.233220e-01	4.186553e-01	1.173781e-01	5.820110e-01	-4.646329e-01
0.36          	5.232137e-01	4.185678e-01	1.173668e-01	5.818971e-01	-4.645303e-01
0.361         	5.231381e-01	4.185081e-01	1.173326e-01	5.818045e-01	-4.644718e-01
0.362         	5.230359e-01	4.184270e-01	1.173190e-01	5.816953e-01	-4.643764e-01
0.363         	5.229230e-01	4.183349e-01	1.172565e-01	5.815513e-01	-4.642947e-01
0.364         	5.228302e-01	4.182606e-01	1.172349e-01	5.814476e-01	-4.642127e-01